240
Lattice="21.24561823 0.01485048 0.01700131 0.00680294 19.81859365 -0.01024566 -0.02078075 0.01017203 13.87678899" Properties=species:S:1:pos:R:3:forces:R:3 energy=-471.80366912763566 pbc="T T T"
Ba       6.94587310       2.90126940       3.48316665       0.23061586      -0.44793215       0.26085966
Ba       4.22487154       7.78760733       0.03925223      -1.10489466      -0.78293315      -0.02057144
Ba       0.30976055       7.65545791       3.18247660      -0.06260931      -0.42184610       0.27482587
Ba       2.76786012       2.43887299       7.12723587       1.40388571       0.15801314      -0.33781780
S       21.13250265       2.40323882       0.46611490       0.26887940       0.14795978       0.05053145
S        3.73063091       7.39920001      10.67952139      -0.23003476       0.31529741       0.52873469
S        7.25485905       7.39062821       6.61563792      -0.82375596      -0.09273350      -0.05141463
S        3.90262911       2.45884339       3.11458336      -0.47724732       1.00675809      -0.33426566
S        1.54965886       0.42725946       5.09898108      -0.97324576       0.09580361      -0.19228157
S        2.03649567       9.68841613       1.34680639       0.75209440       0.04855073       0.68705662
S        5.52278351       5.46754375       1.89578547      -0.22320670      -0.41970666      -0.10352762
S        5.00909205       4.52896159       5.48012115       0.12288128       0.45278626      -0.04302591
S        5.79542097       9.50393619       2.16133268      -0.21037847       0.54047461      -0.30273022
S        4.91634200       0.27427166       5.60755703       0.40982794      -0.37299890       0.07821104
S        1.53249987       4.34765540       4.99637815      -0.21634339       0.16262642      -0.36317460
S        2.01796830       5.32759417       1.49866257       0.32694111      -0.03864892       0.03966571
Zr       0.06049165      19.73479958      13.76998788      -0.73522890       0.89067058       0.06799128
Zr       3.44420462       0.17530237       3.59615249       1.01266965      -0.80769121       0.22344101
Zr       0.07385391       4.78898005       0.11897166      -0.00185921      -0.00809202      -0.28804751
Zr       3.55122667       5.03820751       3.41338270      -0.02081749       0.35350284       0.57689949
Ba       6.89941087       2.22959679      10.25898153      -0.23957943       0.68314333       0.02388446
Ba       4.15815515       7.07514729       7.20255397      -0.97347572       0.84493302      -0.25882753
Ba       0.06099773       7.45584682      10.51776802       0.42903248      -0.06809716      -0.35418669
Ba       3.47329512       2.17521653       0.05135701       0.00146095       0.53232634      -0.29670341
S       20.98438809       2.49618857       7.52698590       0.15416413      -0.63487968      -0.15117510
S        3.34978470       7.42723268       4.05557727       0.05371500       0.17563675      -0.22769614
S        7.20366616       7.42475510      13.48215404       0.10038995       0.87851344      -0.21954920
S        3.77224971       2.39636847      10.04213645      -0.54584965      -0.33537814      -0.23907909
S        1.62595267       0.17722775      11.93164759       0.02408200       0.28642502       0.00209640
S        2.11398021       9.48486197       8.47031250      -0.36043816      -0.00087411      -0.38715904
S        5.66690076       5.06612973       9.02206652       0.33684690       0.40812046      -0.25092375
S        5.02048163       4.52943195      12.23933409       0.68981676      -0.02658312       1.31645005
S        5.67541599       9.82578946       9.20584706       0.12030480      -0.66092272      -0.80407822
S        5.20881941       0.22244569      12.27764498      -0.03908523       0.27964785       0.08665723
S        1.64498127       4.50558877      11.99204563      -0.47214407       0.18104533       0.26497321
S        2.00333192       5.30410827       8.45585288      -0.27931293      -0.33332066       0.02195213
Zr      21.10908009       0.03609963       6.86400845       0.25847955      -0.26306752       1.24453838
Zr       3.64336070      19.73748574      10.28200977       0.08566180       0.13379361       0.42235328
Zr       0.03194087       5.04106075       6.85089113       1.40766607       0.08772832       0.04363157
Zr       3.51494073       4.90197219      10.39250608      -0.18067061       0.42533524      -0.48387615
Ba       6.86036904      12.27499627       3.62080925       0.12829012       0.08494073       0.06630951
Ba       3.46662511      17.47877598       0.46484849       1.05489677      -0.37035596      -0.68437191
Ba       0.35874275      17.39285991       3.18218094      -0.25380275      -0.33356940       0.87227564
Ba       3.10520495      11.90644313       6.93509198       0.36011509       1.29123127       0.49369104
S       21.11529315      12.31575048       0.26127455       0.20409018       1.43298665       0.04384530
S        3.61346697      17.33273200      11.19268147      -0.09831112      -0.32862511      -0.43456068
S        7.21362811      17.25684576       6.58448134       0.25401520       0.10430705      -0.41577520
S        3.82639689      12.39782912       2.96196311      -0.08650690       0.56872697      -0.23463707
S        1.44879935      10.40300789       4.72496952      -0.48626048       0.09153804       0.69514520
S        1.76773014      19.71643250       1.64679490       0.78352374      -0.05570801       0.58586619
S        5.53804692      15.46456934       1.98806905      -0.00965020      -0.69308753       0.37422809
S        5.02080027      14.43622955       5.63705573       0.26185648      -0.12004125       0.26061261
S        5.37701734      19.60457643       1.90604586       0.06426510       0.07932175      -0.33141852
S        4.92472970      10.00546701       5.48240243       0.12526234      -0.04739912       0.05674142
S        1.57261228      14.71182154       5.05673796       0.52669017      -0.30625476      -0.32897569
S        1.99892618      15.01355270       1.67644573      -0.75670522      -0.05514077      -0.73525701
Zr      21.13881928       9.75440140       0.03285932       0.38264934       0.63566376      -0.16288887
Zr       3.48198527      10.08276026       3.47103649      -0.21778868      -1.86376937      -0.97223610
Zr       0.05820712      14.87515388      13.73874187       0.73144889      -0.82830832       0.65638777
Zr       3.72422904      14.80311563       3.65995293      -0.13576753       1.38622289      -0.61875835
Ba       6.76459239      12.33530074      10.65127874       0.09629463       0.59004256      -0.39015448
Ba       4.17340900      17.16663821       7.12017980      -0.68989874       0.44339467      -0.49700973
Ba       0.66217277      17.25593589      10.14422967      -0.59729075       0.28318254       0.46186722
Ba       3.06490920      12.63078522      13.59538890       0.07645992      -0.94369313       0.47747834
S       21.18225213      12.43018607       7.49782159       0.64862200       0.61973448       0.07792594
S        3.51427889      17.40656769       4.05328335      -0.11461047      -0.33984017      -0.58206338
S        6.92489577      17.39145258      13.49542687       0.17030346       0.19889080       0.26959823
S        3.62353723      12.45130882      10.06423617      -0.10990517      -0.12480343      -0.09647716
S        1.42952883      10.12886814      11.91611892       0.31510617       0.08019531      -0.44757096
S        2.19881237      19.34677742       8.31705758      -0.49137851       0.14530237       0.03925473
S        5.81286932      15.26715501       9.14153681      -0.06287726      -0.17821692      -0.44437327
S        5.18333801      14.50864241      12.50097706      -0.50319445      -0.09634171      -0.34747999
S        5.62757908      19.24330480       8.90487492       0.27327110       0.32434810      -0.17680928
S        5.04694894      10.42206569      12.53952934       0.45559123      -0.24519879       0.25435830
S        1.42881213      14.46990452      11.72704215      -0.01365343       0.21749037       0.12474047
S        2.19870875      15.31525279       8.39558471       0.26815552      -0.50669685       0.37167678
Zr      21.08075510      10.08231979       6.89172720      -0.59691061      -0.65158542       0.19824164
Zr       3.49354771       9.96499388      10.49095302      -0.48309095      -0.50649601      -0.08938966
Zr       0.19179562      14.94100240       7.05690772      -0.88291067      -0.13245040      -0.08363026
Zr       3.78285420      14.92028939      10.47074061       0.02773161       0.13923290       0.19443829
Ba      13.71233900       2.59902926       3.93608522       0.26161493      -0.62621883      -0.97966898
Ba      10.81745350       7.14973772      13.58851438       0.03341512       0.44263782       0.72000684
Ba       7.51515688       7.25173907       3.27559670       0.25360668       0.54505292       0.53645318
Ba       9.96385191       2.63699747       6.99677624       0.87214788      -0.51949497      -0.52139234
S        6.96553473       2.55318843       0.45526131       0.07544956      -0.30758106      -0.17116890
S       10.56045022       7.41254448      10.53001063       0.24116713       0.70686102       0.64649695
S       13.97612029       7.41521979       6.29345597       0.34080971       0.37333291      -0.28664087
S       10.46990144       2.58519050       3.02797791       0.40355345      -0.66754177      -0.14655530
S        8.51449404       0.42694417       4.78552033      -0.61707510      -0.05409923       0.83300034
S        9.35930649       9.46203306       1.43063652      -0.71506551       0.19812277      -0.38204268
S       12.70752073       5.37585584       1.90869355      -0.25771445      -0.13902997       0.04170819
S       12.10086406       4.58894651       5.54492573      -0.24547222      -0.02846350      -0.49547496
S       12.60889474       9.79427330       1.88176378      -0.07321878       0.22731194       0.12120663
S       12.02259723       0.46703455       5.58230393       0.04903721       0.01594229       0.04659203
S        8.78986589       4.91304207       5.08796801      -0.35888184      -0.40409864      -0.22551866
S        8.96173187       5.20404515       1.48909727       0.59573760      -0.04476515       0.10239487
Zr       7.13023742       0.07748106       0.08562019      -0.50464220      -0.57269958       0.10745853
Zr      10.73597219       0.14580226       3.50262150      -0.68464476      -0.89649497       0.16712635
Zr       6.95660919       4.95978287      13.58955528       0.27287635       0.09941678       0.58219755
Zr      10.72532544       4.97621869       3.35742738      -0.00795341       0.82818805       0.01839519
Ba      13.67944605       2.35300532      10.21347160       0.49717198       0.50974375       0.48360715
Ba      10.84538999       7.45282489       6.71600835      -0.17106837      -0.48644983       0.59183033
Ba       7.54374779       7.75738030      10.44434475      -0.95218726      -1.35400414      -0.47022856
Ba      10.07481222       2.70412567      13.75500863       0.55929882      -0.46205753       0.17307271
S        6.83901805       2.41710765       7.20007424       0.67577760      -0.13077629       0.07756543
S       10.82680508       7.41873381       3.75799115      -0.26014223       0.61406210      -0.25130234
S       14.22460850       7.51279482      13.39667774      -0.06039664       0.02488048       0.03770926
S       10.55064579       2.54474470      10.00539697       0.04925390      -0.99120670      -0.02093280
S        8.56734351       0.30820303      11.85095717       0.30683157      -0.05444667       0.60656908
S        9.14904641       9.54385014       8.18313124      -0.18006666       0.29329509       0.81634710
S       12.61290050       5.08411506       8.73818945       0.29607780       0.24649565       0.14823432
S       12.18513205       4.62102282      12.26126896       0.21588536       0.04259399       0.35068203
S       12.56815440       9.35676131       8.89960789       0.30979252       0.58493861      -0.39053902
S       12.07505878       0.56860640      12.41474367      -1.21620206      -0.33208529      -0.74669839
S        8.61652258       4.58010535      11.78666819      -0.39576011       0.35284427       0.27678865
S        9.07819339       5.28098843       8.46148473      -0.33912406      -0.08937360      -0.40750115
Zr       7.07894542      19.64712849       6.84144054      -0.25235621       1.98032020      -0.46273943
Zr      10.54971591       0.05259293      10.45009648       0.38230992       0.76312475      -0.52238010
Zr       7.08051238       4.89624036       6.92250651      -0.39844335      -0.32769434       0.45641861
Zr      10.70127554       5.01507680      10.26418219      -0.17446074      -0.30637670      -0.10872606
Ba      13.56736689      12.60468864       3.56619214       1.12269671      -0.66890466      -0.15903105
Ba      11.16660340      17.26213281      13.66163312      -0.79032786       0.19531495       0.56188816
Ba       7.05726905      17.70549769       3.48310539       0.61313047      -0.45339942      -0.22837821
Ba      10.07076287      12.20888688       6.58946187       0.24088085       0.58417967       0.66853543
S        7.28296782      12.51875768       0.46244479       0.11942122      -1.07466704       0.25200499
S       10.70781902      17.42922207      10.45502796      -0.17861930      -0.62252705       1.10412152
S       13.89567832      17.39708008       6.48236577       0.01464108      -0.66019652      -0.42377284
S       10.53884495      12.43259839       3.29805624      -0.37232148       0.20574623      -0.53785499
S        8.49567242       9.99182893       5.00292362       0.27599668       0.17807750      -0.72747417
S        9.18580155      19.54921419       1.37740672      -0.06388679      -0.08667468      -0.02591911
S       12.66987226      15.30686954       1.79811404      -0.27848667      -0.32607061       0.35421134
S       12.20572430      14.56824549       5.36111097      -0.11390510       0.33532272       0.80764563
S       12.61817453      19.38577637       2.09423500       0.67582984       0.08378289      -0.77786591
S       12.11824055      10.26308589       5.48003281       0.20116493      -0.34355621       0.02417521
S        8.59006052      14.42493612       4.95993963       0.09363850       0.51867096      -0.42985561
S        9.33927612      15.18075742       1.40431376      -0.45394795       0.05573652      -0.16420139
Zr       7.28151336      10.07018738       0.17567528      -0.82809591      -0.59253888       0.20973573
Zr      10.60601630      10.00278505       3.57425470       0.01506170      -0.84381972      -0.23734455
Zr       7.24527616      14.98816282       0.05254206      -0.15432269       0.88837528       0.39842690
Zr      10.79753174      15.12144136       3.48368563      -1.02707813       0.48632901      -0.51145972
Ba      13.50426644      12.05812814      10.31640743       0.66462512       0.96402531      -0.04561703
Ba      10.78606914      17.58028224       7.37331444       0.34261659      -0.72406479      -1.39816101
Ba       7.47892678      17.50119628      10.53151360      -0.19407685      -0.45666538      -0.06002951
Ba      10.45015868      12.23145590       0.11927544       0.24272285       0.38730872       0.18731648
S        6.92079877      12.25351682       7.36447340       0.34216680       0.81725736      -0.09315057
S       10.29888134      17.44261778       4.09278173       0.24654255      -0.24021382       0.00140991
S       14.23709096      17.48956709      13.36162854      -0.26638334      -0.82138710      -0.25149948
S       10.52069354      12.40512073       9.75141792      -0.10561533      -0.63985085       0.13791942
S        8.68248135      10.24335945      11.95460441      -0.18459606       0.06804752      -0.07866227
S        9.01136942      19.68911192       8.45678893      -0.12629665       0.31164644      -0.03401624
S       12.61783567      15.14716933       8.99520374       0.65815433       0.08950989      -0.29970917
S       12.10836016      14.33074499      12.39556377       0.14297952       0.57121270      -0.22322061
S       12.66951849      19.51408151       8.83597775      -0.08766228       0.35017152       0.93713361
S       12.02371806      10.12392378      12.25947604      -0.08517094       0.10849961       0.07873775
S        8.56072539      14.74703166      11.79495445       0.05057691      -0.13315112       0.20629260
S        9.25073901      15.02843527       8.35690868      -0.38296696       0.16424152      -0.34430275
Zr       6.81287515       9.78283246       6.98718008       1.00763131       0.81155656       0.26774683
Zr      10.43807203       9.96008622      10.23976740       0.52254547      -0.05901456      -0.60086649
Zr       7.25203254      14.84061680       6.92691809       0.03071700      -1.43636775       0.55843744
Zr      10.62257117      14.78554956      10.44458420      -0.05313671       0.16204396       0.20118614
Ba      20.48537803       2.27820738       3.85553591       1.58586998       0.61354179      -0.72323419
Ba      17.86710377       7.07977018      13.76811257       0.05206228       0.76107414       0.38745859
Ba      14.59739593       7.71297835       2.94137376      -0.84870096      -0.62526187       0.54824518
Ba      17.33587073       2.30457532       7.09836351       0.35615013       0.47704475      -0.75483965
S       14.04026894       2.58198724       0.62546020       0.16563247      -0.42236929       0.02128971
S       17.56229426       7.43435816      10.70217514       0.29728618       0.47467061       0.43763410
S        0.21970210       7.52942772       6.34103460      -0.37641155      -0.42420048       0.18850263
S       17.59477767       2.49472923       3.19995879       0.20211062      -0.23495499      -0.01374749
S       15.72371856       0.40051506       4.98839844      -0.35287578      -0.39944530      -0.10902929
S       16.15523195       9.79481443       1.34450505       0.39922752      -0.00158262      -0.16800880
S       19.71277155       5.22226376       2.03148615      -0.06210394       0.04404198       0.19670843
S       19.30456971       4.62528505       5.48973477      -0.88367016       0.01063722      -0.28804687
S       19.64525736       9.82814788       1.88966657      -0.74039997      -0.20771132       0.96123764
S       19.08178365       0.10621980       5.53244264      -0.03107868       0.56670510      -0.10377931
S       15.87840044       4.42146070       5.06883161      -0.33894617       0.47138905      -0.03090214
S       16.17125831       5.12309050       1.54785263       0.10951154       0.31233696       0.10142167
Zr      13.96944214       0.25034334      13.74743184       1.65021650      -0.16617067       1.79477142
Zr      17.66189170      19.81521517       3.38943307      -0.98347750      -0.22243925      -0.96185393
Zr      14.22953186       5.05116959      13.76894958      -0.31428454      -0.12913653       0.27590707
Zr      17.77130474       5.02422407       3.59390232      -0.27732959       0.58655864      -0.76562263
Ba      21.01966645       2.39543409      10.87803274      -0.42389886       0.19517089      -0.85387825
Ba      18.44697932       7.16747843       7.17515041      -1.44224828       1.40650655      -0.47716973
Ba      14.36280512       7.20657095      10.13100588       0.27097889       0.07937330       0.56967944
Ba      17.26666122       2.38423041       0.25201123       0.19480429       0.13789448      -0.84927922
S       14.27913793       2.45125372       7.30310085      -0.04341256      -0.09984426      -0.16647366
S       17.52804049       7.55382956       3.89640488       0.32915526      -0.42551774       0.26123182
S       21.18811421       7.37280219      13.65041494      -0.29258583      -0.34719278      -0.25460226
S       17.91333978       2.62357098       9.98287436      -0.08099503      -2.33365370       0.30991632
S       15.66710073       0.50305756      11.98652564       0.17660922       0.04779165      -0.89947904
S       16.23330786       9.25177439       8.36861120      -0.56155351       0.76904396      -0.27256717
S       19.75157970       5.14327192       8.84418930       0.30931914       0.48486751       0.83699604
S       19.29190834       4.68071809      12.37893499       0.02006347      -0.02952717       0.17105000
S       19.64224452       9.66229587       8.90150490       0.27042955      -0.32761748       0.11325256
S       19.11316843       0.30947318      12.59084015      -0.07623899       0.20780910      -0.99121777
S       15.72338180       4.59333365      11.86585050      -0.20699758      -0.24283415       0.14818384
S       16.21838111       5.27232719       8.41224242      -0.31585036      -0.04569864      -0.30587516
Zr      14.24388203      19.72943918       6.89303817      -0.16072437       1.30120735      -0.01590285
Zr      17.76704525       0.04093220      10.36595189       0.13771708       0.43204593       0.21937843
Zr      14.25183171       5.04322175       6.76214981       0.03231961      -0.66918186       0.89822720
Zr      17.74136907       4.98470429      10.44407660       0.08791501       0.44672733      -0.44900074
Ba      21.22498707      12.84511803       3.43656563      -0.67475786      -0.73010759      -0.23298141
Ba      18.20856688      17.43374194      13.77183561      -0.56816380       0.04940046       1.00195470
Ba      14.58794615      17.09104942       3.21789552      -0.24372204       1.11269869       0.57123564
Ba      17.09244444      12.63398395       7.10054270       0.68319012      -0.60711578      -1.45053039
S       14.15681020      12.54748729       0.48733352       0.27703721       0.05986887      -0.30236894
S       17.57367641      17.40688360      10.90704357      -0.11820987      -0.14353094      -0.16217550
S       21.10686286      17.39590434       6.41415825       0.60221985      -0.35414589       0.00131223
S       17.67647793      12.49702377       3.33362947       0.26054136       0.13155213      -0.55362722
S       15.54534942      10.54270260       4.93176679      -0.06265812      -0.55528448      -0.03095540
S       16.14454975      19.33974246       1.35548354       0.30046238       0.50648055       0.71349713
S       19.63061775      15.19103842       1.82645373       0.22156021       0.09216524       0.34692424
S       19.19471874      14.59450423       5.60258673       0.33814575      -0.30079945      -0.69483910
S       19.63939635      19.43517452       1.86626816       0.10508923       0.13230715       0.61500480
S       19.13449642      10.43843892       5.47502701       0.09886535      -0.37198316      -0.14878182
S       15.69123498      14.62440319       5.01473416      -0.21579174       0.18745465      -0.27733800
S       16.25571212      15.33345210       1.39895030       0.27444057      -0.36904482      -0.26031102
Zr      13.98244326      10.18483367      13.71791475      -0.32841418      -0.56775000       1.62785917
Zr      17.44976127      10.04281721       3.39141945       1.08417576      -0.21821086       0.57682876
Zr      14.44793683      15.00264175      13.61394040      -1.37011634       0.08286415       1.11398173
Zr      17.80127285      14.89788105       3.56697783      -0.17752198       0.42413107       0.69987784
Ba      20.51881327      12.18907301      10.74342087       1.62473908       0.81980833      -0.89540352
Ba      18.09054728      17.18588036       6.75568993       0.19574497       0.64394932       0.78240436
Ba      14.48785268      17.30015590      10.30543927      -0.05232454       0.41871683      -0.34282479
Ba      17.72162869      12.77201018       0.32882371      -0.20354225      -1.09450292      -0.33013754
S       13.99723441      12.42199931       7.32964936       0.25039057      -0.23367343       0.21381240
S       17.63486267      17.43190951       3.90019637       0.05021187      -1.10433371      -0.58349164
S        0.16125739      17.33896479      13.33754817      -0.00273018      -0.68943806       0.23822570
S       17.62581916      12.43159578       9.91592756      -0.06097603       0.39828689       0.74932824
S       15.53087451      10.34688816      11.88670475       0.37596680       0.08460742      -0.60851005
S       16.34795310      19.27037129       8.35886260      -0.38662615       0.57462939       0.23093064
S       19.77448551      15.27341119       8.93650442      -0.35252331      -0.11664116       0.64151789
S       19.21716694      14.71493304      12.42969106      -0.35590656      -0.06731582      -0.45360085
S       19.86145847      19.32218077       9.02300244      -0.50400489       0.41431062       0.38574924
S       19.16712549      10.23472911      12.33432005      -1.17185825      -0.77648069       0.25143303
S       15.53823450      14.39936319      11.58596293       0.26811442      -0.05584636      -0.21681674
S       16.32569637      15.45024786       8.27889582      -0.91467337      -0.69979084       0.87404623
Zr      14.18721452       9.80346156       6.95434505       0.07169141       0.61224343       0.03207655
Zr      17.44333065      10.05894517      10.49938814       0.92974394      -1.07085946      -0.82342767
Zr      14.08624248      15.00317375       7.03433637       0.50113961      -0.78594970      -0.25862946
Zr      17.74105994      15.00641049      10.51746353       0.07631070       0.12448113      -1.69020189
135
Lattice="10.95130197 -6.0059968 -7.58615673 8.77383869 10.19586932 4.90899395 3.18845503 -8.54266779 11.24082897" Properties=species:S:1:pos:R:3:forces:R:3 energy=-244.53413083660416 pbc="T T T"
Ba       4.17491443      -0.48598431       1.28367839      -0.62181754      -0.64564574      -0.21916105
Zr       0.06389702       0.01378884       0.01420518      -1.66312719      -1.68107854      -1.77144622
S        0.93338270      -0.90161565       1.99355613       0.08817059      -0.74067382       0.82968870
S       15.28630936     -12.64580873       4.13767321       2.00347610       2.93092899       0.27163937
S        5.01730731      -9.32334021       9.80021074      -0.06965112      -0.66152531       0.18948656
Ba       5.01657872      -3.59709217       5.43021868      -0.83707214      -0.77334482      -0.76763887
Zr       1.31065417      -2.84362015       3.62649041       1.35178409       0.43311887      -0.65994233
S        1.91625457      -4.26203349       5.47964073       0.40410229      -0.27818391       0.56885508
S       13.19967021      -6.97658823      -2.71213378       0.41223268       0.64189805      -0.80568781
S        3.23863717      -3.57486696       2.13446446      -1.69506987       1.28482963       1.33856057
Ba       6.19537230      -6.74518303       9.01534176      -0.74087832       1.36279542      -0.40305423
Zr       2.30301105      -5.67591441       7.55599531       0.75375526      -0.61871566       0.29731746
S       21.91928631      -3.18158991       6.65740854       0.01501929      -0.60097937      -0.77840461
S       14.70526828     -10.37473613       1.54848747      -0.67005986      -1.51314535      -1.00710468
S        4.33155834      -6.87406177       6.55635563      -1.27115906       0.76693069       1.13697195
Ba       6.62842803       2.51347835       3.14246019       0.29820721      -0.08935394      -0.83171351
Zr      16.90767421     -11.17849624       5.30405679       0.73365148      -0.65376052       0.91271706
S        3.20331904       1.60165070       3.24844624       0.02136147      -0.26420221       0.77662849
S       15.38770050      -1.17702328      -4.75480765      -0.32914967       0.50594575       0.37353532
S        4.81941289       2.59935281       0.50222624       0.70976196      -1.24221349      -1.50606663
Ba       7.92869192       0.09541688       6.92806774      -0.45405961      -0.22694338      -0.19278258
Zr       4.12976866       0.64269217       5.35986372      -0.76067302      -2.37207907      -1.36996750
S        4.51125077      -1.35275115       7.07042677       0.28805861       1.78262263       0.80321359
S        5.46229750       2.43084230       5.88825574       0.60303590       0.23375220       1.00551314
S        5.60536349      -0.72622318       3.90270574      -0.45114004       0.48247452       0.33973607
Ba       8.98656192      -2.86807806      10.75625513      -0.82724247      -0.09594212      -0.65263607
Zr      15.88603662      -8.42316692       1.74940212       1.85401944       1.43765833      -0.63513264
S        5.99152352      -3.56386824      11.23362487      -0.37712590       1.78994007      -0.71111561
S        6.59032569      -0.52230957       9.58544905       0.38074751      -0.05555687       0.28792698
S        6.76787352      -3.76885525       8.06779673      -0.98124439       0.12275934       0.87578143
Ba       9.87139850       6.20823252       4.71729389       0.48244524      -0.67309401       0.60729961
Zr      16.78954750       0.75753378      -4.11810116      -0.99641772      -0.89017482      -0.48624105
S        7.09752318       5.03298825       4.78388180      -0.59979266      -0.12639436      -0.51166571
S        7.63668348       7.94528058       4.40944952       0.83247728       2.64774960       0.51217752
S       10.68524854      -2.51294327      13.07701125       1.64521055      -0.68139963      -1.29706281
Ba      10.81338154       3.39005473       8.69667830       0.02510479      -0.71396788      -0.50418190
Zr      17.90891158      -1.83675611      -0.56922107       0.15581133      -0.82183075      -2.46375861
S       18.00029783      -2.99866853       1.44583861       0.42834268      -2.62389588       1.43843616
S       19.28619219      -0.07128424       0.05426237       1.35260484       1.33264257       0.48134207
S        8.85829514       2.77346289       6.22255050      -0.14672780       0.45341232       0.50748916
Ba      11.65529931       0.28522036      12.24554236       0.37976331       0.71483159       0.25189266