240
Lattice="21.19104036 -0.01316631 -0.00348138 -0.01201259 19.80484092 0.00207825 -0.00189303 -0.00370628 13.84434128" Properties=species:S:1:pos:R:3:forces:R:3 energy=-484.0564946262166 pbc="T T T"
Ba       6.69389932       2.58164505       3.44334601       0.06680164      -0.35141113       0.25482898
Ba       3.87767671       7.38302403       0.10266515      -0.11451865       0.18243735       0.08425588
Ba       0.35672756       7.45142589       3.27312928      -0.37139134      -0.01403405       0.38617629
Ba       3.03629367       2.47327473       6.88046898       0.29060658       0.07433543      -0.14902109
S        0.02191098       2.43959556       0.42660809       0.09699585      -0.13223639      -0.08674127
S        3.57323799       7.49688770      10.87243203       0.10121619      -0.12048630      -0.12768719
S        6.84497210       7.38937739       6.47623329       0.27510005       0.15399859      -0.36125413
S        3.55848522       2.49552145       2.99611901       0.11575827      -0.24968729       0.10732052
S        1.47518077       0.40753406       4.79387854      -0.36274487      -0.04636743       0.50495818
S        1.97980199       9.62818524       1.40355447       0.32429513      -0.32937871       0.07774518
S        5.61181787       5.29389351       2.01625417      -0.13453476       0.08126054       0.12191468
S        4.95580801       4.51755680       5.43542306       0.15871788       0.18258540       0.06322396
S        5.57580022       9.60611677       2.00610261      -0.09278958      -0.13961653       0.03897647
S        5.03396362       0.49362279       5.44139800      -0.29000252      -0.20015679       0.03064637
S        1.47798409       4.64197076       4.94160884      -0.14415551       0.15312724       0.07922368
S        2.01171024       5.19169774       1.46252833       0.01189873       0.32820077      -0.16227791
Zr       0.02088129      19.68124949      13.77271094       0.15325170       0.61685971      -0.31638613
Zr       3.59623390      19.74742241       3.44223985       0.45922722       0.98566852       0.27799219
Zr      21.15851013       4.85281137      13.82810171      -0.34779358       0.00796179      -0.10527090
Zr       3.48620128       4.96684581       3.43909418       0.10028296      -0.72045503       0.19273883
Ba       6.74212443       2.51861868      10.33443617       0.08563468      -0.34714738       0.36927623
Ba       3.84159741       7.34614169       6.87177241      -0.59794729       0.23063780       0.26671267
Ba       0.46716893       7.40344647      10.48236183      -0.31927934       0.24868905      -0.49814837
Ba       3.20005470       2.54937671       0.00677413      -0.03151115      -0.36562988      -0.37436533
S       21.10373359       2.45684174       7.30663832       0.03534784       0.10018291       0.16620685
S        3.48321565       7.42857644       3.81612118      -0.01900432      -0.15858278      -0.02497716
S        6.97186932       7.38084514      13.38358827       0.07421358       0.01086915       0.01262494
S        3.52411751       2.51529733       9.94537974      -0.01081323       0.02260928      -0.00034726
S        1.57005323       0.22583006      11.83981119      -0.54675504      -0.09252636       0.63525235
S        2.06336714       9.57485044       8.35544919       0.32713909       0.10901008       0.19014811
S        5.47866774       5.20866782       8.78851441      -0.05099124      -0.02314616       0.41174805
S        4.99392622       4.56316921      12.34122789       0.20563648       0.11187513       0.09173802
S        5.59092440       9.59884054       8.96229863       0.00266644      -0.03730385       0.01459079
S        5.05316530       0.36302612      12.38405102       0.03660506       0.11721869       0.10795765
S        1.49858823       4.61678884      11.83688188      -0.14175154       0.10000526       0.12885543
S        1.98351557       5.29198188       8.35328770       0.22854008      -0.08885022       0.33389575
Zr      21.16234353       0.03484235       6.76346963       0.15580946      -0.39535504       0.72980325
Zr       3.57628698       0.08533687      10.26686380      -0.02601956      -0.27914000       0.21484490
Zr      21.05074709       4.96025047       6.90997258       0.18916051       0.51023491       0.12302778
Zr       3.49290190       5.06952434      10.35511522      -0.03687188      -0.15421395      -0.40448759
Ba       6.65276222      12.24036191       3.67040437      -0.38418970       0.37223277      -0.53544112
Ba       3.89196334      17.50696019       0.27038786       0.22694614      -0.51099729      -0.62891525
Ba       0.47728045      17.48902994       3.48844574      -0.53038829      -0.53616322      -0.32459201
Ba       2.96632371      12.42866265       6.72226635       0.48729387      -0.27151740       0.36898255
S        0.14578028      12.36309451       0.37092418      -0.06352564       0.48882197       0.03265906
S        3.52487838      17.41694392      10.93471051       0.07983500      -0.31407056      -0.10164704
S        6.90297723      17.35807986       6.54023501       0.30051144      -0.57301135      -0.28677979
S        3.44692283      12.36962083       2.94173424       0.12945040       0.24926028       0.08244373
S        1.39613432      10.25845015       4.93199724       0.28015018      -0.10444495      -0.49011434
S        2.02899995      19.59286981       1.49660128      -0.22671369      -0.32770842      -0.21005154
S        5.59795865      15.15594405       2.04806643      -0.20478746      -0.14505658      -0.17291706
S        4.98584552      14.46691858       5.50429359      -0.05914199       0.16433356      -0.19406661
S        5.65021655      19.38013246       2.10785122      -0.05387458       0.40265304      -0.18137734
S        4.82904666      10.27923180       5.46248810       0.53045856      -0.35603116       0.24773242
S        1.45502595      14.47936061       4.89344630      -0.29154325       0.20221793      -0.02963171
S        2.02634618      15.30824093       1.45555548       0.02241941       0.10927588       0.20589959
Zr      21.17307538       9.86165023      13.75778619      -0.49522273       0.46091220       0.11807760
Zr       3.38682733       9.84437763       3.37416624       0.45631230       1.23650887       0.36063249
Zr      21.13493855      14.83475650       0.08535419       0.14645385      -0.65723927      -0.26295391
Zr       3.46998592      14.88825715       3.47844199       0.66288819      -1.18412838      -0.52518436
Ba       6.94283804      12.28690490      10.35982295      -0.37614046       0.45223398      -0.04583193
Ba       3.79776526      17.23745655       7.08195400       0.07496942       0.37445922      -0.26597600
Ba       0.39066980      17.19586606      10.42243951      -0.09875327       0.32895940      -0.41435062
Ba       3.27842552      12.64412393      13.59601117       0.00810749      -0.53597448       0.61741710
S       21.08916503      12.35745184       7.44656785       0.06073180       0.21160818       0.03737774
S        3.58918864      17.31112566       3.92760158      -0.17869561       0.41096418       0.19739526
S        7.00283015      17.28060277      13.51066707       0.05027544       0.12022740      -0.12655979
S        3.63258073      12.52903054       9.88032437      -0.02339098      -0.83155477      -0.03787206
S        1.51668440      10.34607855      11.83594815       0.17428055      -0.38521322      -0.14532726
S        1.95750922      19.40601823       8.38847001       0.09991913       0.33017094      -0.16061125
S        5.59662211      15.25306120       8.85997001       0.22523652      -0.06323441      -0.08274648
S        5.23192485      14.53534011      12.16719513       0.15053992      -0.04637114       0.50757229
S        5.50174111      19.37789121       8.86786150       0.45676927       0.19170703      -0.06422799
S        5.00473635      10.32448500      12.38951907       0.14596452      -0.08079719       0.01615614
S        1.62692692      14.60110700      11.93211199      -0.34462161       0.23731992      -0.06904533
S        1.99424878      15.19314516       8.40103665       0.02143461      -0.20333028       0.11822109
Zr      21.14260876       9.91809841       6.95187905       0.04912555      -0.33722213       0.20066520
Zr       3.52607901      10.08808670      10.31820661      -0.21125389       0.06066576      -0.00720991
Zr      21.14382066      14.81740235       6.88345006      -0.05654014       0.17814334       0.36521486
Zr       3.63352290      15.01773830      10.33908178      -0.40370509      -0.03211543      -0.00886231
Ba      13.83871459       2.43709910       3.71296628      -0.06346368       0.18388152      -0.21483633
Ba      11.03008413       7.39052275       0.26714940      -0.11159195      -0.17516033      -0.41274301
Ba       7.55194696       7.55509286       3.35076244      -0.49681357      -0.51878447       0.02889104
Ba      10.08984297       2.32724818       6.63426483       0.62494200       0.40492608       0.39305272
S        7.25329604       2.43557006       0.43352969      -0.37340719       0.18252863       0.16443746
S       10.49294148       7.38374429      10.97658100      -0.21896225      -0.13552738      -0.19870446
S       14.21408650       7.37293591       6.57677839      -0.02790304       0.24576071       0.27064717
S       10.71125403       2.44176312       3.14226515      -0.14431999      -0.53260766       0.03341511
S        8.53782158       0.29427832       4.81887900      -0.16166941      -0.05487020       0.15208821
S        9.13548882       9.52119925       1.41716996      -0.16649799       0.18398131      -0.20946551
S       12.75049022       5.27531727       2.17975536       0.23747533       0.03224166      -0.66794835
S       12.08420744       4.57988068       5.49520127       0.06692044      -0.08230009       0.16931262
S       12.71469831       9.51497063       1.99219370      -0.57795780       0.12763828       0.35520665
S       12.08441844       0.21844245       5.53932888      -0.22861908       0.12114412      -0.20715335
S        8.58253073       4.66004507       4.87618701      -0.46999083       0.10938538       0.35640977
S        9.14655767       5.21845073       1.42890558      -0.30868284       0.14874462      -0.10045547
Zr       7.09245228      19.76870927      13.83794663       0.16065778      -0.22546820      -0.07112385
Zr      10.71540121      19.65000550       3.47421445      -0.50169099      -0.22985379      -0.37009887
Zr       6.98150038       4.87805148      13.81826333       0.32664404       0.07259963       0.01768640
Zr      10.58484092       4.87886596       3.39970566       0.52517731       0.04639049       0.14779360
Ba      13.60620148       2.62818353      10.58231144       0.39730824      -0.55491266      -0.42446483
Ba      11.10905123       7.23655379       6.85686518      -0.42468908       0.43030537       0.25316037
Ba       7.22558686       7.31017023      10.24030836       0.35467370       0.18311296       0.26089972
Ba      10.36751825       2.62015255       0.08520990      -0.13869287      -0.70962814      -0.17475440
S        7.10153066       2.48061829       7.29869703      -0.04496335      -0.05653962       0.03658756
S       10.62623363       7.37534165       3.79956220      -0.03196154       0.36703792       0.04706439
S       14.14120452       7.32407926      13.31208797      -0.16747108       0.00037156       0.13149468
S       10.53395059       2.49389622       9.94518339       0.02918176      -0.08841019      -0.30220223
S        8.60626183       0.31646795      11.88487720      -0.07863384      -0.05005454      -0.19004029
S        9.12487245       9.41686777       8.21450286      -0.00580896       0.02443386       0.39617091
S       12.62062052       5.25473155       8.93882371      -0.11933139      -0.00982950       0.23284741
S       12.00104038       4.67717799      12.40950964       0.23096313      -0.01613252       0.00364924
S       12.63003269       9.37992157       9.02921850       0.08451046       0.25128330      -0.41343475
S       12.02761512       0.33639736      12.51341615      -0.14012961       0.03820322      -0.55050759
S        8.54133655       4.56839353      11.89180993      -0.00369618       0.02955171      -0.34779860
S        9.03382836       5.37630394       8.34763964      -0.01894086      -0.12780708      -0.04648341
Zr       7.04442296      19.79696022       6.83591232       0.07518960       0.10069489       0.25797890
Zr      10.65052390       0.04961807      10.42424223      -0.34198147      -0.58069683      -0.04004168
Zr       7.01975456       4.93198652       6.82871348      -0.05229032      -0.12495776      -0.17319085
Zr      10.46141973       4.95615573      10.30215983       0.18444805       0.48505780       0.25129375
Ba      13.89916876      12.52496738       3.34595561      -0.08401542      -0.60255361       0.35441694
Ba      10.78118420      17.15030435       0.03506800       0.28336982       0.42299389      -0.25517954
Ba       7.50152064      17.27922420       3.54621583      -0.22430199      -0.08086712      -0.66694567
Ba      10.17151779      12.18894810       6.74165391       0.13197781       0.27127477       0.23387622
S        7.24294501      12.34755048       0.43681998      -0.01522928      -0.22675745       0.11860214
S       10.61809583      17.28248714      10.69605664      -0.08327468       0.55323131       0.02979074
S       14.02327274      17.27472203       6.47793291       0.05389762      -0.69074348       0.09615793
S       10.68246070      12.33551855       2.97482630      -0.00471157      -0.56382503      -0.25827340
S        8.52881126      10.18530449       4.91842140       0.18108267      -0.26335308      -0.36066653
S        9.11796102      19.34015285       1.47475598       0.19729748       0.25870424       0.32413064
S       12.63496606      15.18683269       2.03445898       0.19662599      -0.06659282      -0.44217320
S       12.09268261      14.34462727       5.45379661       0.42291290      -0.00139871       0.53173593
S       12.58357610      19.50528233       1.90875287      -0.11244336      -0.23839748       0.42491360
S       12.05800803      10.12883963       5.42754951       0.34265835      -0.05791765       0.23584717
S        8.54993802      14.41485237       4.86536171      -0.38698672       0.06883346       0.40961598
S        9.08496261      15.20757304       1.55986823      -0.20544195      -0.33075944      -0.29595664
Zr       7.02358786       9.84420064      13.81590700      -0.19900791       0.15638925       0.04831338
Zr      10.58572644       9.87380739       3.38630753       0.14605548      -0.04574489       0.24799815
Zr       7.05779640      14.73608976      13.83346352      -0.01063785       0.60703473       0.79914647
Zr      10.60752349      14.72361149       3.49565801       0.16864295       0.56098190      -0.44370876
Ba      13.73580053      12.28704179      10.48939337       0.10664643       0.03167063       0.08973029
Ba      10.91711496      17.36577232       7.21694486       0.22422847      -0.07258343      -0.32469584
Ba       7.41378499      17.24919675      10.47311042      -0.12565764       0.33388922      -0.34162770
Ba      10.40135919      12.54641290      13.59732650      -0.21713102      -0.57736338       0.56449798
S        7.06576417      12.31265271       7.23568360       0.01148988       0.43835598       0.20360907
S       10.56276833      17.16264643       4.05325534       0.27658809       1.03495300       0.10496650
S       14.04491602      17.24510510      13.42858398       0.20157997       0.16841980      -0.14258842
S       10.59179190      12.29027867       9.87578387      -0.11376551       0.19950424       0.08895853
S        8.48533276      10.10396871      11.77706808       0.03403203       0.10219853       0.13303007
S        9.02658155      19.48136755       8.42608455       0.05651535       0.19065660      -0.01213633
S       12.68110852      15.11645930       8.98047604       0.41589248      -0.11502879      -0.49402515
S       12.14007385      14.63991690      12.28794642       0.29657266      -0.28019517       0.21937580
S       12.70304177      19.55687330       8.99019891      -0.19795393      -0.01130476       0.25890149
S       12.06344522      10.18059513      12.28722856      -0.09229838       0.09774257       0.44355166
S        8.66590804      14.60929423      11.89964249       0.02357542      -0.22830801      -0.17440401
S        9.12499033      15.13883683       8.34927164      -0.40761608      -0.21592836      -0.24188855
Zr       6.92804983       9.84731759       6.90978874       0.19310181       0.23805180      -0.28644821
Zr      10.47030178       9.81484126      10.34585372       0.03305543      -0.59241093      -0.40913072
Zr       7.09628295      14.86664194       6.82816191      -0.27627913      -0.26255118       0.37646235
Zr      10.62037008      14.78706614      10.30685068      -0.11677352       0.29769751       0.12252062
Ba      20.73899027       2.67489173       3.50821463       0.31944213      -0.43293981       0.07561339
Ba      17.96961594       7.56881537       0.25765200      -0.04066829      -0.19475553      -0.29125549
Ba      14.55911080       7.56063374       3.60434286      -0.42274366      -0.34541537      -0.45602118
Ba      17.25076632       2.45665438       6.98165524       0.32533511       0.08587743      -0.25703536
S       14.03311857       2.37397654       0.58279878       0.14811262       0.51482428      -0.41064755
S       17.67600534       7.44596149      10.95389543      -0.10049985      -0.06248769      -0.04612974
S        0.01711250       7.48620780       6.55885085      -0.17654054      -0.86276716      -0.46878504
S       17.62913063       2.50867416       3.04670892      -0.06017902      -0.31692676      -0.16654425
S       15.54508923       0.20802638       4.93180970       0.65025379       0.26803884      -0.45137517
S       16.01371946       9.63468179       1.55049605       0.27593821       0.04808343      -0.25031750
S       19.69976728       5.23954310       2.01566106      -0.01299157       0.16966666       0.05925815
S       19.03623932       4.66162322       5.48755540       0.30992391       0.00278526       0.25611127
S       19.67831289       9.61571887       2.01547116       0.04916847       0.05956451      -0.10925745
S       19.01810097       0.31048638       5.52947948       0.12006532      -0.01976444      -0.42982282
S       15.68556751       4.67189592       4.97988654      -0.35641282      -0.12195051       0.05454105
S       16.11065671       5.33855891       1.45594108      -0.03603647      -0.14196619      -0.08699329
Zr      14.15893016      19.66196856      13.72752668      -0.49274235       0.34017622      -0.14517517
Zr      17.73497410       0.05135779       3.33333322      -0.65274018      -0.01170106       0.78666719
Zr      14.01992105       4.79097227      13.82442599      -0.02418663       0.25488891       0.71289820
Zr      17.57419752       5.02342160       3.39157777      -0.00004106       0.26421527       0.15180207
Ba      20.96498197       2.31173099      10.52618043      -0.20483189       0.38446673      -0.32923415
Ba      17.98994963       7.47654459       7.07228817       0.09958339      -0.17687894      -0.30609955
Ba      14.61281299       7.28287008      10.23698988      -0.41432664       0.33453452       0.10229731
Ba      17.14230481       2.55619319      13.71153487       0.38185492      -0.31970652       0.23538452
S       14.18133663       2.43374054       7.36030174      -0.05580669      -0.23907528       0.20245324
S       17.62953623       7.48468660       3.87106555       0.18129244      -0.08044488       0.02528879
S       21.12710849       7.41813144      13.49731953       0.09199674      -0.45353382      -0.00624898
S       17.80212169       2.51492037      10.02512828      -0.08144688      -0.30335544      -0.09218323
S       15.63709250       0.31998519      11.80554228      -0.23060804       0.09993608      -0.09136904
S       16.13698060       9.55903017       8.43247113       0.02281438       0.04193147      -0.23234471
S       19.78181467       5.31735058       9.08082299       0.01547431      -0.08274427      -0.42042981
S       19.07510823       4.59594634      12.46875501       0.35146370       0.09901693       0.14432293
S       19.79447402       9.41037326       9.01290280      -0.60531882       0.34519957       0.08305324
S       19.12544206       0.39686643      12.42948820       0.15155819      -0.14949448       0.21787699
S       15.62377111       4.59788462      11.90984772      -0.25425191      -0.11833514      -0.13472039
S       16.21471427       5.24421967       8.42795071      -0.02989944      -0.12183476      -0.04497148
Zr      14.15566629      19.68798996       6.92677725       0.17519657       0.00187932       0.02987027
Zr      17.75538712       0.04790910      10.34390516       0.13071118      -0.00263592      -0.36153281
Zr      14.13170832       4.82193944       6.95402219      -0.14924909       0.50621885      -0.20561376
Zr      17.68602574       5.03860834      10.43517929       0.37383209      -0.24362125      -0.04691210
Ba      20.77757735      12.29505935       3.35217877       0.29274678       0.16854415       0.40351186
Ba      17.82568067      17.45291485       0.09879709       0.12095087      -0.48981330      -0.21391974
Ba      14.41675597      17.45610977       3.27248792      -0.22216966      -0.40567588       0.46216347
Ba      17.49742677      12.22623530       6.97329827      -0.40555511       0.32777221      -0.00767167
S       14.05552060      12.32858964       0.33007682      -0.20138828      -0.21080151      -0.28979010
S       17.63599129      17.37193970      10.80442536       0.02127191      -0.32570943       0.28837805
S       21.14663553      17.29148619       6.52658547       0.17164003       0.43169429      -0.44448876
S       17.66503121      12.41576473       2.91975530       0.06059447       0.16072414      -0.01129112
S       15.59810416      10.30969573       4.97635855      -0.04656754       0.02571250       0.21383747
S       16.06273501      19.52819119       1.47383482       0.50360740       0.10530361       0.24948977
S       19.71820100      15.21621144       2.08294194      -0.05941535       0.08692751       0.18730213
S       19.11988179      14.41263405       5.52127514      -0.30255573       0.26702698      -0.60027355
S       19.68632969      19.47634092       1.96470107       0.01811058      -0.09810706       0.28217012
S       19.15961826      10.17514161       5.46364707      -0.27315879       0.07842392      -0.20800149
S       15.67857507      14.32616374       4.99549413       0.01084951       0.34944576       0.07593415
S       16.10897091      15.07088256       1.48737779       0.31240878       0.26810391       0.07530884
Zr      14.00591384       9.69182720      13.76642892       0.67559137       0.41396004      -0.17964272
Zr      17.57352779      10.02996146       3.48208994       0.01810112      -0.45928806      -0.07943252
Zr      14.17643137      14.72702600       0.00965169      -0.81424131       0.40306313      -0.15394523
Zr      17.63020497      14.89753326       3.49509785       0.24460606      -0.11645986       0.34916786
Ba      20.97113577      12.50177531      10.55027335      -0.25511514      -0.15642754      -0.16394743
Ba      18.07173129      17.37471039       6.95872676      -0.26398322      -0.33158945       0.20414617
Ba      14.51564499      17.30390037      10.24081742      -0.08230766       0.01713639       0.09303719
Ba      17.14142601      12.31875930      13.66106429       0.52520330      -0.23018172       0.10768243
S       14.15696435      12.27996162       7.43381403       0.03642785       0.42919102       0.23927813
S       17.46379785      17.35032764       3.91725305       0.26004055      -0.13158991      -0.25757407
S       20.90718614      17.24566278      13.40999379       0.21485082       0.67708450      -0.01720673
S       17.78339962      12.36957063      10.03018071      -0.09436565       0.06580927      -0.15592077
S       15.61049959      10.16717518      11.83564450      -0.14689685       0.01308136       0.13082742
S       16.25270227      19.44468654       8.32217058      -0.07563891       0.13740362       0.32557408
S       19.68089975      15.23119154       8.88311040      -0.05822605      -0.10796891       0.35157476
S       19.15394864      14.37119129      12.40459109       0.05552343       0.43011098       0.10760248
S       19.79349106      19.38997854       8.94522396      -0.25524387       0.19702629       0.10178063
S       19.14239473      10.23829796      12.36955399       0.08721245       0.03538466       0.20968375
S       15.67480334      14.49588717      11.82266570      -0.55945094       0.03891057       0.21557103
S       16.24994430      15.14650582       8.34166721      -0.35569139      -0.03228437      -0.05311331
Zr      13.99852931       9.91242299       7.01610929       0.15319476      -0.89175532      -0.38324214
Zr      17.62013779       9.93085527      10.34957697       0.63883586      -0.08829432       0.22703319
Zr      14.13440123      14.69775291       6.93557756       0.01932112       0.76446227      -0.17330437
Zr      17.65854185      14.89658809      10.41527236       0.56256772      -0.00759467      -0.46952235
80
Lattice="0.40487824 7.09671061 12.07051578 10.39786885 -8.18209783 4.54602863 1.222509 6.71961532 -12.41357724" Properties=species:S:1:pos:R:3:forces:R:3 energy=-152.3583177626133 pbc="T T T"
Ba       1.93821341       3.24275925       2.17914224      -0.69809038      -0.61771693      -0.25654701
Ba       4.28302268      -0.82782008      -0.06867167       0.06175687       0.55706307       0.54862035
Zr       0.12450326       0.15008427      -0.18993916       0.47731142      -0.05515199       2.59700906
Zr       3.69515864       6.37573699      -8.29025989       1.46348556      -0.47052730       1.03553040
S        1.42802270       1.67795791       5.06198591       0.33498801       0.79421249       0.01392041
S        1.99704330       1.66251303      -0.58484662      -1.35905202      -0.53610371       0.45978010
S        4.25174843       1.09795957       2.79061465       0.84056270       0.90385847      -0.05086195
S        4.12873254       0.79093201      -2.72556450      -0.29600710       0.31958136      -0.58037452
S        4.44017393      -0.60136903       5.79018797      -1.44689071       0.44594137       0.67552306
S        2.50542316       6.33742688     -10.25397611      -1.27400462       0.09604159      -1.64140386
Ba       2.20234634       6.33380621      -3.79968630       0.01942853       0.32372050      -0.55098760
Ba       4.97288152       2.94071078      -6.36419542      -0.56852797       0.76007545      -0.27918465
Zr       1.09172376      10.39395427       5.77956288      -0.51353938       0.04881949       0.23942409
Zr       3.51281137       3.24608833      -2.01669974       0.24842128      -2.50963729      -1.57171031
S        2.49028496       5.00047387      -0.94233646      -2.32208076       1.29953116       1.02873438
S        2.13743147       5.18592389      -6.67982640       1.03210483       0.37919833      -0.99100662
S        5.07362343       4.41212763      -3.35747159       0.70294209       0.49000668      -0.83655849
S        5.13165367       4.51982398      -9.27763412      -1.11592938      -0.58292299      -0.02587185
S        5.13118392       2.87241797      -0.28020432       0.77482483      -0.02154372       1.35961428
S        1.79642387       3.31839565      -3.94303409      -0.61314893      -0.70635475       0.21757826
Ba       6.86210574      -0.69434140       4.25068169       0.03189564      -0.59854518      -0.92214881
Ba       9.86493375      -4.53959882       2.88609439      -0.50467424      -0.50330800      -0.23194659
Zr       6.61392127       9.59794467       1.89904814      -0.30363394       1.08629386       1.45648245
Zr       8.94480770       2.31497377      -5.89311800       0.58811225      -0.10204079      -1.35061152
S        6.72749164      -2.35704575       6.98932346      -0.03960841       1.08308782       0.79723596
S        6.61281723      -2.64106935       1.37627553       1.45574227       1.81827581      -1.89407660
S        9.91090328      -3.01990515       5.93579103       0.35799468       0.15310714      -0.97287789
S        9.56330801      -2.97699477      -0.86138768      -0.81332578      -0.29171352       0.14961491
S       10.21020270       2.03773986      -3.83116928       0.26368522      -0.37641291       1.05855378
S        6.74575553      -4.08362411       4.12275276       0.18100684      -0.51952908       0.74468289
Ba       7.81578093       2.84691336      -1.94213089      -1.19061355      -0.29123454      -0.35486360
Ba      10.09884903      -0.96775447      -3.23750080      -0.11212807      -1.17728548      -1.05193933
Zr       6.08867774       6.46054442       8.08594575      -0.85493883      -0.75401103      -0.12050259
Zr       8.31336747      -0.92451230       0.18533869      -0.47408543      -1.43014651       0.01777685
S        7.77460489       0.92096400       1.67725728      -0.47085808       0.61409466      -0.31845099
S        6.91556900       1.25116031      -4.99391770       0.78061104      -0.19932469       0.06699706
S       10.44778324       0.21639364      -0.48856036       0.48534231       1.02787091       0.33542039
S       10.11009741       0.36921170      -7.09187360       0.88402460      -0.43875348       0.11352454
S        9.63880506      -1.62716286       2.37904011       0.47214654       0.02486506       0.16372796
S        7.17324441      -0.25229470      -1.92156455       0.90942639      -0.14335863       1.31090370
Ba       1.87014367       6.86086257       7.98222225       1.19834433       0.62022635      -0.99961528