nqpoint: 600    
npath: 12     
segment_nqpoint:
- 50
- 50
- 50
- 50
- 50
- 50
- 50
- 50
- 50
- 50
- 50
- 50
labels:
- [ 'G', 'X' ]
- [ 'X', 'S' ]
- [ 'S', 'Y' ]
- [ 'Y', 'G' ]
- [ 'G', 'Z' ]
- [ 'Z', 'U' ]
- [ 'U', 'R' ]
- [ 'R', 'T' ]
- [ 'T', 'Z|Y' ]
- [ 'Z|Y', 'T|U' ]
- [ 'T|U', 'X|S' ]
- [ 'X|S', 'R' ]
reciprocal_lattice:
- [   0.14033535,   0.00000000,   0.00000000 ] # a*
- [   0.00000000,   0.09980330,   0.00000000 ] # b*
- [   0.00000000,   0.00000000,   0.14200251 ] # c*
natom: 20     
lattice:
- [     7.125788582741000,     0.000000000000000,     0.000000000000000 ] # a
- [     0.000000000000000,    10.019708833413000,     0.000000000000000 ] # b
- [     0.000000000000000,     0.000000000000000,     7.042128924126000 ] # c
points:
- symbol: Ba # 1
  coordinates: [  0.044429397704000,  0.750000000000000,  0.009401065492000 ]
  mass: 137.327000
- symbol: Ba # 2
  coordinates: [  0.955570602296000,  0.250000000000000,  0.990598934508000 ]
  mass: 137.327000
- symbol: Ba # 3
  coordinates: [  0.544429397704000,  0.750000000000000,  0.490598934507999 ]
  mass: 137.327000
- symbol: Ba # 4
  coordinates: [  0.455570602296000,  0.250000000000000,  0.509401065492001 ]
  mass: 137.327000
- symbol: Zr # 5
  coordinates: [  0.500000000000000,  0.000000000000000,  0.000000000000000 ]
  mass: 91.224000
- symbol: Zr # 6
  coordinates: [  0.500000000000000,  0.500000000000000,  0.000000000000000 ]
  mass: 91.224000
- symbol: Zr # 7
  coordinates: [  0.000000000000000,  0.000000000000000,  0.500000000000000 ]
  mass: 91.224000
- symbol: Zr # 8
  coordinates: [  0.000000000000000,  0.500000000000000,  0.500000000000000 ]
  mass: 91.224000
- symbol: S  # 9
  coordinates: [  0.712789373620001,  0.032306972252000,  0.712899240726000 ]
  mass: 32.060000
- symbol: S  # 10
  coordinates: [  0.712789373620001,  0.467693027748000,  0.712899240726000 ]
  mass: 32.060000
- symbol: S  # 11
  coordinates: [  0.287210626380001,  0.967693027748000,  0.287100759274000 ]
  mass: 32.060000
- symbol: S  # 12
  coordinates: [  0.287210626380001,  0.532306972252000,  0.287100759274000 ]
  mass: 32.060000
- symbol: S  # 13
  coordinates: [  0.787210626379999,  0.967693027748000,  0.212899240726000 ]
  mass: 32.060000
- symbol: S  # 14
  coordinates: [  0.787210626379999,  0.532306972252000,  0.212899240726000 ]
  mass: 32.060000
- symbol: S  # 15
  coordinates: [  0.212789373619999,  0.032306972252000,  0.787100759274000 ]
  mass: 32.060000
- symbol: S  # 16
  coordinates: [  0.212789373619999,  0.467693027748000,  0.787100759274000 ]
  mass: 32.060000
- symbol: S  # 17
  coordinates: [  0.493725419042000,  0.750000000000000,  0.938326548516000 ]
  mass: 32.060000
- symbol: S  # 18
  coordinates: [  0.506274580958000,  0.250000000000000,  0.061673451484000 ]
  mass: 32.060000
- symbol: S  # 19
  coordinates: [  0.993725419042000,  0.750000000000000,  0.561673451484000 ]
  mass: 32.060000
- symbol: S  # 20
  coordinates: [  0.006274580958000,  0.250000000000000,  0.438326548516000 ]
  mass: 32.060000

phonon:
- q-position: [    0.0000000,    0.0000000,    0.0000000 ]
  distance:    0.0000000
  band:
  - # 1
    frequency:   -0.0030460758
  - # 2
    frequency:   -0.0016329231
  - # 3
    frequency:   -0.0011986027
  - # 4
    frequency:    1.3538123992
  - # 5
    frequency:    1.5045367638
  - # 6
    frequency:    1.7033269241
  - # 7
    frequency:    1.7220842056
  - # 8
    frequency:    1.7630352859
  - # 9
    frequency:    1.8604664264
  - # 10
    frequency:    1.9255415720
  - # 11
    frequency:    1.9317025415
  - # 12
    frequency:    1.9751960159
  - # 13
    frequency:    2.0899378809
  - # 14
    frequency:    2.2434629248
  - # 15
    frequency:    2.2984965056
  - # 16
    frequency:    2.2999213377
  - # 17
    frequency:    2.4146530017
  - # 18
    frequency:    2.4921697093
  - # 19
    frequency:    2.6363385107
  - # 20
    frequency:    2.8537211127
  - # 21
    frequency:    3.1223602605
  - # 22
    frequency:    3.1971353721
  - # 23
    frequency:    3.2090234826
  - # 24
    frequency:    3.2371160022
  - # 25
    frequency:    3.3210897841
  - # 26
    frequency:    3.9252280717
  - # 27
    frequency:    3.9689129237
  - # 28
    frequency:    3.9690939031
  - # 29
    frequency:    4.1586201018
  - # 30
    frequency:    4.3912609703
  - # 31
    frequency:    4.5710518773
  - # 32
    frequency:    4.6633652237
  - # 33
    frequency:    4.8643358066
  - # 34
    frequency:    4.8874172589
  - # 35
    frequency:    5.1204998273
  - # 36
    frequency:    5.1500043812
  - # 37
    frequency:    5.1711713094
  - # 38
    frequency:    5.2552637368
  - # 39
    frequency:    6.1483545113
  - # 40
    frequency:    6.2566492733
  - # 41
    frequency:    6.3716001898
  - # 42
    frequency:    6.5957030855
  - # 43
    frequency:    6.6177038144
  - # 44
    frequency:    6.6328008849
  - # 45
    frequency:    6.7680394302
  - # 46
    frequency:    6.8645725394
  - # 47
    frequency:    6.9053391391
  - # 48
    frequency:    7.5992331381
  - # 49
    frequency:    8.2321963008
  - # 50
    frequency:    8.3043645280
  - # 51
    frequency:    8.3073380405
  - # 52
    frequency:    8.3153796760
  - # 53
    frequency:    8.4230800913
  - # 54
    frequency:    8.4254165131
  - # 55
    frequency:    8.6487696866
  - # 56
    frequency:    8.6865638637
  - # 57
    frequency:    8.7155575649
  - # 58
    frequency:   11.7632954857
  - # 59
    frequency:   12.2095222437
  - # 60
    frequency:   12.7727571830

- q-position: [    0.0000000,    0.0000000,    0.0102041 ]
  distance:    0.0014490
  band:
  - # 1
    frequency:    0.0393077758
  - # 2
    frequency:    0.0462875267
  - # 3
    frequency:    0.0898714775
  - # 4
    frequency:    1.3552508304
  - # 5
    frequency:    1.5052842583
  - # 6
    frequency:    1.7035089235
  - # 7
    frequency:    1.7218095676
  - # 8
    frequency:    1.7651704454
  - # 9
    frequency:    1.8603472106
  - # 10
    frequency:    1.9231722413
  - # 11
    frequency:    1.9317331199
  - # 12
    frequency:    1.9759566770
  - # 13
    frequency:    2.0922216990
  - # 14
    frequency:    2.2447315023
  - # 15
    frequency:    2.2953020234
  - # 16
    frequency:    2.3035709664
  - # 17
    frequency:    2.4148700013
  - # 18
    frequency:    2.4942134482
  - # 19
    frequency:    2.6367826155
  - # 20
    frequency:    2.8540146933
  - # 21
    frequency:    3.1226709892
  - # 22
    frequency:    3.2011596954
  - # 23
    frequency:    3.2091436122
  - # 24
    frequency:    3.2374904838
  - # 25
    frequency:    3.3227145881
  - # 26
    frequency:    3.9255010828
  - # 27
    frequency:    3.9688606420
  - # 28
    frequency:    3.9695735719
  - # 29
    frequency:    4.1585818475
  - # 30
    frequency:    4.3917597274
  - # 31
    frequency:    4.5709221510
  - # 32
    frequency:    4.6634758632
  - # 33
    frequency:    4.8641735114
  - # 34
    frequency:    4.8877924005
  - # 35
    frequency:    5.1179717920
  - # 36
    frequency:    5.1526088378
  - # 37
    frequency:    5.1708298545
  - # 38
    frequency:    5.2557321142
  - # 39
    frequency:    6.1476260327
  - # 40
    frequency:    6.2559222702
  - # 41
    frequency:    6.3715874309
  - # 42
    frequency:    6.5955000777
  - # 43
    frequency:    6.6168050314
  - # 44
    frequency:    6.6285365343
  - # 45
    frequency:    6.7681946334
  - # 46
    frequency:    6.8638692918
  - # 47
    frequency:    6.9092522245
  - # 48
    frequency:    7.5989897857
  - # 49
    frequency:    8.2318012982
  - # 50
    frequency:    8.3035377084
  - # 51
    frequency:    8.3082643927
  - # 52
    frequency:    8.3159025568
  - # 53
    frequency:    8.4230275287
  - # 54
    frequency:    8.4257971135
  - # 55
    frequency:    8.6471939489
  - # 56
    frequency:    8.6865099257
  - # 57
    frequency:    8.7190569739
  - # 58
    frequency:   11.7635166937
  - # 59
    frequency:   12.2107835751
  - # 60
    frequency:   12.7729092172

- q-position: [    0.0000000,    0.0000000,    0.0204082 ]
  distance:    0.0028980
  band:
  - # 1
    frequency:    0.0787628835
  - # 2
    frequency:    0.0925316799
  - # 3
    frequency:    0.1796596255
  - # 4
    frequency:    1.3595447400
  - # 5
    frequency:    1.5075105661
  - # 6
    frequency:    1.7040502708
  - # 7
    frequency:    1.7210188063
  - # 8
    frequency:    1.7713059586
  - # 9
    frequency:    1.8600083279
  - # 10
    frequency:    1.9166694211
  - # 11
    frequency:    1.9318244972
  - # 12
    frequency:    1.9777757257
  - # 13
    frequency:    2.0988951259
  - # 14
    frequency:    2.2484792495
  - # 15
    frequency:    2.2918350376
  - # 16
    frequency:    2.3084082592
  - # 17
    frequency:    2.4155438652
  - # 18
    frequency:    2.5003322042
  - # 19
    frequency:    2.6381178824
  - # 20
    frequency:    2.8549907368
  - # 21
    frequency:    3.1236037729
  - # 22
    frequency:    3.2095191569
  - # 23
    frequency:    3.2132047373
  - # 24
    frequency:    3.2386155548
  - # 25
    frequency:    3.3275634007
  - # 26
    frequency:    3.9263191623
  - # 27
    frequency:    3.9687036172
  - # 28
    frequency:    3.9710069406
  - # 29
    frequency:    4.1584725770
  - # 30
    frequency:    4.3932568121
  - # 31
    frequency:    4.5705522894
  - # 32
    frequency:    4.6638029216
  - # 33
    frequency:    4.8636869554
  - # 34
    frequency:    4.8889116254
  - # 35
    frequency:    5.1120346842
  - # 36
    frequency:    5.1587736204
  - # 37
    frequency:    5.1698060775
  - # 38
    frequency:    5.2571348309
  - # 39
    frequency:    6.1454240821
  - # 40
    frequency:    6.2537452115
  - # 41
    frequency:    6.3715484429
  - # 42
    frequency:    6.5948882883
  - # 43
    frequency:    6.6141099122
  - # 44
    frequency:    6.6165096520
  - # 45
    frequency:    6.7686520111
  - # 46
    frequency:    6.8617690686
  - # 47
    frequency:    6.9202527292
  - # 48
    frequency:    7.5982607425
  - # 49
    frequency:    8.2306505352
  - # 50
    frequency:    8.3020830666
  - # 51
    frequency:    8.3100205477
  - # 52
    frequency:    8.3174375709
  - # 53
    frequency:    8.4228737758
  - # 54
    frequency:    8.4269332703
  - # 55
    frequency:    8.6432845260
  - # 56
    frequency:    8.6863477536
  - # 57
    frequency:    8.7287389075
  - # 58
    frequency:   11.7641819487
  - # 59
    frequency:   12.2145527069
  - # 60
    frequency:   12.7733627809

- q-position: [    0.0000000,    0.0000000,    0.0306122 ]
  distance:    0.0043470
  band:
  - # 1
    frequency:    0.1181197516
  - # 2
    frequency:    0.1386375945
  - # 3
    frequency:    0.2692304058
  - # 4
    frequency:    1.3666305527
  - # 5
    frequency:    1.5111680148
  - # 6
    frequency:    1.7049374240
  - # 7
    frequency:    1.7197716712
  - # 8
    frequency:    1.7807007616
  - # 9
    frequency:    1.8595171080
  - # 10
    frequency:    1.9072067706
  - # 11
    frequency:    1.9319756449
  - # 12
    frequency:    1.9798412226
  - # 13
    frequency:    2.1094870046
  - # 14
    frequency:    2.2545293406
  - # 15
    frequency:    2.2885942391
  - # 16
    frequency:    2.3139491160
  - # 17
    frequency:    2.4167454900
  - # 18
    frequency:    2.5104884982
  - # 19
    frequency:    2.6403532496
  - # 20
    frequency:    2.8569020528
  - # 21
    frequency:    3.1251604137
  - # 22
    frequency:    3.2101896490
  - # 23
    frequency:    3.2331994603
  - # 24
    frequency:    3.2404960886
  - # 25
    frequency:    3.3355653521
  - # 26
    frequency:    3.9276794604
  - # 27
    frequency:    3.9684413391
  - # 28
    frequency:    3.9733770111
  - # 29
    frequency:    4.1583104172
  - # 30
    frequency:    4.3957546675
  - # 31
    frequency:    4.5699995734
  - # 32
    frequency:    4.6643318683
  - # 33
    frequency:    4.8628771260
  - # 34
    frequency:    4.8907571001
  - # 35
    frequency:    5.1047019490
  - # 36
    frequency:    5.1664805259
  - # 37
    frequency:    5.1681017456
  - # 38
    frequency:    5.2594646691
  - # 39
    frequency:    6.1416997664
  - # 40
    frequency:    6.2501297834
  - # 41
    frequency:    6.3714811177
  - # 42
    frequency:    6.5938595716
  - # 43
    frequency:    6.5985214697
  - # 44
    frequency:    6.6096221567
  - # 45
    frequency:    6.7693844509
  - # 46
    frequency:    6.8583028562
  - # 47
    frequency:    6.9366208607
  - # 48
    frequency:    7.5970490486
  - # 49
    frequency:    8.2288367864
  - # 50
    frequency:    8.3005789138
  - # 51
    frequency:    8.3120365413
  - # 52
    frequency:    8.3198937788
  - # 53
    frequency:    8.4226304912
  - # 54
    frequency:    8.4288084571
  - # 55
    frequency:    8.6384868592
  - # 56
    frequency:    8.6860762783
  - # 57
    frequency:    8.7431623434
  - # 58
    frequency:   11.7652961242
  - # 59
    frequency:   12.2207853205
  - # 60
    frequency:   12.7741102813

- q-position: [    0.0000000,    0.0000000,    0.0408163 ]
  distance:    0.0057960
  band:
  - # 1
    frequency:    0.1573786933
  - # 2
    frequency:    0.1845431607
  - # 3
    frequency:    0.3584778087
  - # 4
    frequency:    1.3764041904
  - # 5
    frequency:    1.5161799037
  - # 6
    frequency:    1.7061491144
  - # 7
    frequency:    1.7181076600
  - # 8
    frequency:    1.7922586129
  - # 9
    frequency:    1.8590312259
  - # 10
    frequency:    1.8957473097
  - # 11
    frequency:    1.9321849948
  - # 12
    frequency:    1.9816278946
  - # 13
    frequency:    2.1233700874
  - # 14
    frequency:    2.2625825341
  - # 15
    frequency:    2.2855053230
  - # 16
    frequency:    2.3202921075
  - # 17
    frequency:    2.4186008485
  - # 18
    frequency:    2.5246196083
  - # 19
    frequency:    2.6435039239
  - # 20
    frequency:    2.8600750500
  - # 21
    frequency:    3.1273439483
  - # 22
    frequency:    3.2112051102
  - # 23
    frequency:    3.2431401932
  - # 24
    frequency:    3.2610528685
  - # 25
    frequency:    3.3466181765
  - # 26
    frequency:    3.9295772612
  - # 27
    frequency:    3.9680730542
  - # 28
    frequency:    3.9766551515
  - # 29
    frequency:    4.1581313627
  - # 30
    frequency:    4.3992573735
  - # 31
    frequency:    4.5693574144
  - # 32
    frequency:    4.6650386537
  - # 33
    frequency:    4.8617456655
  - # 34
    frequency:    4.8933015281
  - # 35
    frequency:    5.0968527602
  - # 36
    frequency:    5.1657198158
  - # 37
    frequency:    5.1748424782
  - # 38
    frequency:    5.2627097009
  - # 39
    frequency:    6.1363741015
  - # 40
    frequency:    6.2450949281
  - # 41
    frequency:    6.3713820230
  - # 42
    frequency:    6.5765381193
  - # 43
    frequency:    6.5924008431
  - # 44
    frequency:    6.6033479647
  - # 45
    frequency:    6.7703375189
  - # 46
    frequency:    6.8535315813
  - # 47
    frequency:    6.9565231686
  - # 48
    frequency:    7.5953597667
  - # 49
    frequency:    8.2264877123
  - # 50
    frequency:    8.2991288135
  - # 51
    frequency:    8.3142214840
  - # 52
    frequency:    8.3231465298
  - # 53
    frequency:    8.4223166255
  - # 54
    frequency:    8.4313963955
  - # 55
    frequency:    8.6337990260
  - # 56
    frequency:    8.6856937381
  - # 57
    frequency:    8.7613363271
  - # 58
    frequency:   11.7668672793
  - # 59
    frequency:   12.2294084374
  - # 60
    frequency:   12.7751391403

- q-position: [    0.0000000,    0.0000000,    0.0510204 ]
  distance:    0.0072450
  band:
  - # 1
    frequency:    0.1965166232
  - # 2
    frequency:    0.2301838030
  - # 3
    frequency:    0.4472877834
  - # 4
    frequency:    1.3887237505
  - # 5
    frequency:    1.5224443114
  - # 6
    frequency:    1.7076580908
  - # 7
    frequency:    1.7160452269
  - # 8
    frequency:    1.8045791194
  - # 9
    frequency:    1.8589029822
  - # 10
    frequency:    1.8829045966
  - # 11
    frequency:    1.9324506533
  - # 12
    frequency:    1.9829119388
  - # 13
    frequency:    2.1398738367
  - # 14
    frequency:    2.2722257707
  - # 15
    frequency:    2.2824940065
  - # 16
    frequency:    2.3275453489
  - # 17
    frequency:    2.4213030319
  - # 18
    frequency:    2.5426373911
  - # 19
    frequency:    2.6475919972
  - # 20
    frequency:    2.8648095329
  - # 21
    frequency:    3.1301586985
  - # 22
    frequency:    3.2126121047
  - # 23
    frequency:    3.2465591917
  - # 24
    frequency:    3.2966557397
  - # 25
    frequency:    3.3606021715
  - # 26
    frequency:    3.9320060341
  - # 27
    frequency:    3.9675979125
  - # 28
    frequency:    3.9808005625
  - # 29
    frequency:    4.1579990124
  - # 30
    frequency:    4.4037706549
  - # 31
    frequency:    4.5687528778
  - # 32
    frequency:    4.6658899630
  - # 33
    frequency:    4.8602948658
  - # 34
    frequency:    4.8965113658
  - # 35
    frequency:    5.0888291446
  - # 36
    frequency:    5.1626644524
  - # 37
    frequency:    5.1835064505
  - # 38
    frequency:    5.2668534536
  - # 39
    frequency:    6.1293429205
  - # 40
    frequency:    6.2386660998
  - # 41
    frequency:    6.3712465237
  - # 42
    frequency:    6.5522130910
  - # 43
    frequency:    6.5904947587
  - # 44
    frequency:    6.5952960874
  - # 45
    frequency:    6.7714105944
  - # 46
    frequency:    6.8475650309
  - # 47
    frequency:    6.9784843644
  - # 48
    frequency:    7.5931999737
  - # 49
    frequency:    8.2237410534
  - # 50
    frequency:    8.2977652158
  - # 51
    frequency:    8.3165583507
  - # 52
    frequency:    8.3270621980
  - # 53
    frequency:    8.4219577296
  - # 54
    frequency:    8.4346626759
  - # 55
    frequency:    8.6297193453
  - # 56
    frequency:    8.6851977078
  - # 57
    frequency:    8.7827719992
  - # 58
    frequency:   11.7689065633
  - # 59
    frequency:   12.2403217067
  - # 60
    frequency:   12.7764319098

- q-position: [    0.0000000,    0.0000000,    0.0612245 ]
  distance:    0.0086940
  band:
  - # 1
    frequency:    0.2355068502
  - # 2
    frequency:    0.2754952558
  - # 3
    frequency:    0.5355376698
  - # 4
    frequency:    1.4034130000
  - # 5
    frequency:    1.5298388396
  - # 6
    frequency:    1.7094331921
  - # 7
    frequency:    1.7135965680
  - # 8
    frequency:    1.8158915662
  - # 9
    frequency:    1.8598908888
  - # 10
    frequency:    1.8690492821
  - # 11
    frequency:    1.9327706901
  - # 12
    frequency:    1.9836106297
  - # 13
    frequency:    2.1583222562
  - # 14
    frequency:    2.2794967228
  - # 15
    frequency:    2.2829666096
  - # 16
    frequency:    2.3358155920
  - # 17
    frequency:    2.4251289447
  - # 18
    frequency:    2.5644283824
  - # 19
    frequency:    2.6526476151
  - # 20
    frequency:    2.8712949084
  - # 21
    frequency:    3.1336103455
  - # 22
    frequency:    3.2144450779
  - # 23
    frequency:    3.2507676045
  - # 24
    frequency:    3.3398373934
  - # 25
    frequency:    3.3773889418
  - # 26
    frequency:    3.9349575047
  - # 27
    frequency:    3.9670151749
  - # 28
    frequency:    3.9857593288
  - # 29
    frequency:    4.1580206108
  - # 30
    frequency:    4.4093018835
  - # 31
    frequency:    4.5683443684
  - # 32
    frequency:    4.6668435790
  - # 33
    frequency:    4.8585276613
  - # 34
    frequency:    4.9003506152
  - # 35
    frequency:    5.0807800638
  - # 36
    frequency:    5.1589410534
  - # 37
    frequency:    5.1923094577
  - # 38
    frequency:    5.2718751639
  - # 39
    frequency:    6.1204859005
  - # 40
    frequency:    6.2308743298
  - # 41
    frequency:    6.3710689481
  - # 42
    frequency:    6.5268143678
  - # 43
    frequency:    6.5854778978
  - # 44
    frequency:    6.5881205614
  - # 45
    frequency:    6.7724170746
  - # 46
    frequency:    6.8406017269
  - # 47
    frequency:    7.0014500267
  - # 48
    frequency:    7.5905787478
  - # 49
    frequency:    8.2207272612
  - # 50
    frequency:    8.2965071268
  - # 51
    frequency:    8.3190445656
  - # 52
    frequency:    8.3315154530
  - # 53
    frequency:    8.4215850383
  - # 54
    frequency:    8.4385665666
  - # 55
    frequency:    8.6264588533
  - # 56
    frequency:    8.6845851388
  - # 57
    frequency:    8.8072695928
  - # 58
    frequency:   11.7714280815
  - # 59
    frequency:   12.2533991301
  - # 60
    frequency:   12.7779664299

- q-position: [    0.0000000,    0.0000000,    0.0714286 ]
  distance:    0.0101430
  band:
  - # 1
    frequency:    0.2743219542
  - # 2
    frequency:    0.3204141008
  - # 3
    frequency:    0.6230924482
  - # 4
    frequency:    1.4202654873
  - # 5
    frequency:    1.5382258219
  - # 6
    frequency:    1.7107774866
  - # 7
    frequency:    1.7114414881
  - # 8
    frequency:    1.8240656697
  - # 9
    frequency:    1.8544103588
  - # 10
    frequency:    1.8632676691
  - # 11
    frequency:    1.9331434874
  - # 12
    frequency:    1.9836842231
  - # 13
    frequency:    2.1780122551
  - # 14
    frequency:    2.2764617260
  - # 15
    frequency:    2.2942974311
  - # 16
    frequency:    2.3452067361
  - # 17
    frequency:    2.4304578710
  - # 18
    frequency:    2.5898544032
  - # 19
    frequency:    2.6587110208
  - # 20
    frequency:    2.8795627868
  - # 21
    frequency:    3.1377060304
  - # 22
    frequency:    3.2167236372
  - # 23
    frequency:    3.2557831381
  - # 24
    frequency:    3.3902754954
  - # 25
    frequency:    3.3968443290
  - # 26
    frequency:    3.9384217443
  - # 27
    frequency:    3.9663244854
  - # 28
    frequency:    3.9914627712
  - # 29
    frequency:    4.1583725314
  - # 30
    frequency:    4.4158600645
  - # 31
    frequency:    4.5683205447
  - # 32
    frequency:    4.6678488560
  - # 33
    frequency:    4.8564476193
  - # 34
    frequency:    4.9047847291
  - # 35
    frequency:    5.0727776221
  - # 36
    frequency:    5.1545562853
  - # 37
    frequency:    5.2011624597
  - # 38
    frequency:    5.2777501399
  - # 39
    frequency:    6.1096812941
  - # 40
    frequency:    6.2217551810
  - # 41
    frequency:    6.3708427960
  - # 42
    frequency:    6.5012997393
  - # 43
    frequency:    6.5739074846
  - # 44
    frequency:    6.5852550139
  - # 45
    frequency:    6.7730019718
  - # 46
    frequency:    6.8330114370
  - # 47
    frequency:    7.0246951079
  - # 48
    frequency:    7.5875071469
  - # 49
    frequency:    8.2175610661
  - # 50
    frequency:    8.2953705000
  - # 51
    frequency:    8.3216799737
  - # 52
    frequency:    8.3363975724
  - # 53
    frequency:    8.4212343798
  - # 54
    frequency:    8.4430627402
  - # 55
    frequency:    8.6240843918
  - # 56
    frequency:    8.6838524102
  - # 57
    frequency:    8.8347746497
  - # 58
    frequency:   11.7744487220
  - # 59
    frequency:   12.2684911534
  - # 60
    frequency:   12.7797160275

- q-position: [    0.0000000,    0.0000000,    0.0816327 ]
  distance:    0.0115920
  band:
  - # 1
    frequency:    0.3129345491
  - # 2
    frequency:    0.3648780051
  - # 3
    frequency:    0.7097993366
  - # 4
    frequency:    1.4390490824
  - # 5
    frequency:    1.5474575294
  - # 6
    frequency:    1.7076126227
  - # 7
    frequency:    1.7136502647
  - # 8
    frequency:    1.8277151969
  - # 9
    frequency:    1.8391379971
  - # 10
    frequency:    1.8697853394
  - # 11
    frequency:    1.9335681317
  - # 12
    frequency:    1.9831002909
  - # 13
    frequency:    2.1981739094
  - # 14
    frequency:    2.2733484438
  - # 15
    frequency:    2.3057762757
  - # 16
    frequency:    2.3558198389
  - # 17
    frequency:    2.4377829204
  - # 18
    frequency:    2.6187538268
  - # 19
    frequency:    2.6658359248
  - # 20
    frequency:    2.8894826753
  - # 21
    frequency:    3.1424544851
  - # 22
    frequency:    3.2194537572
  - # 23
    frequency:    3.2616266921
  - # 24
    frequency:    3.4188276129
  - # 25
    frequency:    3.4473746948
  - # 26
    frequency:    3.9423872783
  - # 27
    frequency:    3.9655262124
  - # 28
    frequency:    3.9978246300
  - # 29
    frequency:    4.1593403793
  - # 30
    frequency:    4.4234557940
  - # 31
    frequency:    4.5689018612
  - # 32
    frequency:    4.6688473101
  - # 33
    frequency:    4.8540589286
  - # 34
    frequency:    4.9097842852
  - # 35
    frequency:    5.0648578365
  - # 36
    frequency:    5.1495181287
  - # 37
    frequency:    5.2100097625
  - # 38
    frequency:    5.2844502431
  - # 39
    frequency:    6.0968271504
  - # 40
    frequency:    6.2113476725
  - # 41
    frequency:    6.3705609846
  - # 42
    frequency:    6.4763964807
  - # 43
    frequency:    6.5606017663
  - # 44
    frequency:    6.5818733402
  - # 45
    frequency:    6.7724899090
  - # 46
    frequency:    6.8254873239
  - # 47
    frequency:    7.0477212735
  - # 48
    frequency:    7.5839981783
  - # 49
    frequency:    8.2143394448
  - # 50
    frequency:    8.2943704233
  - # 51
    frequency:    8.3244633178
  - # 52
    frequency:    8.3416183330
  - # 53
    frequency:    8.4209449638
  - # 54
    frequency:    8.4481027266
  - # 55
    frequency:    8.6225908838
  - # 56
    frequency:    8.6829953887
  - # 57
    frequency:    8.8653048669
  - # 58
    frequency:   11.7779879429
  - # 59
    frequency:   12.2854270442
  - # 60
    frequency:   12.7816497548

- q-position: [    0.0000000,    0.0000000,    0.0918367 ]
  distance:    0.0130410
  band:
  - # 1
    frequency:    0.3513175728
  - # 2
    frequency:    0.4088258698
  - # 3
    frequency:    0.7954803693
  - # 4
    frequency:    1.4595107951
  - # 5
    frequency:    1.5573809607
  - # 6
    frequency:    1.7041397802
  - # 7
    frequency:    1.7160287105
  - # 8
    frequency:    1.8233397028
  - # 9
    frequency:    1.8275412584
  - # 10
    frequency:    1.8783454873
  - # 11
    frequency:    1.9340448239
  - # 12
    frequency:    1.9818267174
  - # 13
    frequency:    2.2179542565
  - # 14
    frequency:    2.2701262302
  - # 15
    frequency:    2.3170983722
  - # 16
    frequency:    2.3677533718
  - # 17
    frequency:    2.4476949710
  - # 18
    frequency:    2.6509435476
  - # 19
    frequency:    2.6740948197
  - # 20
    frequency:    2.9007954577
  - # 21
    frequency:    3.1478661994
  - # 22
    frequency:    3.2226306462
  - # 23
    frequency:    3.2683223947
  - # 24
    frequency:    3.4431893190
  - # 25
    frequency:    3.5101342828
  - # 26
    frequency:    3.9468412108
  - # 27
    frequency:    3.9646218661
  - # 28
    frequency:    4.0047365279
  - # 29
    frequency:    4.1613816109
  - # 30
    frequency:    4.4321011678
  - # 31
    frequency:    4.5703466769
  - # 32
    frequency:    4.6697733281
  - # 33
    frequency:    4.8513663861
  - # 34
    frequency:    4.9153282627
  - # 35
    frequency:    5.0570365555
  - # 36
    frequency:    5.1438359358
  - # 37
    frequency:    5.2188133520
  - # 38
    frequency:    5.2919445047
  - # 39
    frequency:    6.0818676689
  - # 40
    frequency:    6.1996932420
  - # 41
    frequency:    6.3702161255
  - # 42
    frequency:    6.4526491502
  - # 43
    frequency:    6.5455806311
  - # 44
    frequency:    6.5779501093
  - # 45
    frequency:    6.7697341306
  - # 46
    frequency:    6.8191971285
  - # 47
    frequency:    7.0701806722
  - # 48
    frequency:    7.5800667554
  - # 49
    frequency:    8.2111429188
  - # 50
    frequency:    8.2935213471
  - # 51
    frequency:    8.3273910650
  - # 52
    frequency:    8.3471045533
  - # 53
    frequency:    8.4207581052
  - # 54
    frequency:    8.4536360051
  - # 55
    frequency:    8.6219366075
  - # 56
    frequency:    8.6820094968
  - # 57
    frequency:    8.8989137474
  - # 58
    frequency:   11.7820675191
  - # 59
    frequency:   12.3040174697
  - # 60
    frequency:   12.7837326619

- q-position: [    0.0000000,    0.0000000,    0.1020408 ]
  distance:    0.0144901
  band:
  - # 1
    frequency:    0.3894444329
  - # 2
    frequency:    0.4521979282
  - # 3
    frequency:    0.8799219606
  - # 4
    frequency:    1.4813817753
  - # 5
    frequency:    1.5678418945
  - # 6
    frequency:    1.7004159470
  - # 7
    frequency:    1.7185492594
  - # 8
    frequency:    1.8071009819
  - # 9
    frequency:    1.8249934040
  - # 10
    frequency:    1.8873110534
  - # 11
    frequency:    1.9345752831
  - # 12
    frequency:    1.9798338428
  - # 13
    frequency:    2.2364635242
  - # 14
    frequency:    2.2667729359
  - # 15
    frequency:    2.3281347472
  - # 16
    frequency:    2.3811031906
  - # 17
    frequency:    2.4608075539
  - # 18
    frequency:    2.6835870747
  - # 19
    frequency:    2.6862215706
  - # 20
    frequency:    2.9131692980
  - # 21
    frequency:    3.1539536326
  - # 22
    frequency:    3.2262418247
  - # 23
    frequency:    3.2758976824
  - # 24
    frequency:    3.4697691550
  - # 25
    frequency:    3.5770149920
  - # 26
    frequency:    3.9517693663
  - # 27
    frequency:    3.9636146019
  - # 28
    frequency:    4.0120617050
  - # 29
    frequency:    4.1652203639
  - # 30
    frequency:    4.4418096172
  - # 31
    frequency:    4.5729648288
  - # 32
    frequency:    4.6705549907
  - # 33
    frequency:    4.8483753814
  - # 34
    frequency:    4.9214069640
  - # 35
    frequency:    5.0493163200
  - # 36
    frequency:    5.1375205036
  - # 37
    frequency:    5.2275464082
  - # 38
    frequency:    5.3001998815
  - # 39
    frequency:    6.0648201330
  - # 40
    frequency:    6.1868347934
  - # 41
    frequency:    6.3698008262
  - # 42
    frequency:    6.4304405977
  - # 43
    frequency:    6.5288671032
  - # 44
    frequency:    6.5734600161
  - # 45
    frequency:    6.7634229469
  - # 46
    frequency:    6.8154769879
  - # 47
    frequency:    7.0918255937
  - # 48
    frequency:    7.5757296400
  - # 49
    frequency:    8.2080380600
  - # 50
    frequency:    8.2928368073
  - # 51
    frequency:    8.3304571320