240
Lattice="14.14018585 -0.00245327 -0.02582678 -0.0113341 19.83035044 -0.01731329 0.02374647 -0.00816919 20.79936556" Properties=species:S:1:pos:R:3:forces:R:3 energy=-474.69562972616404 pbc="T T T"
Ba       6.57586785       2.65621096       3.75914694       0.74838076      -0.20372046      -0.17872992
Ba       4.07623361       7.65517773       0.48304365      -0.54817666      -0.79733045      -0.70096627
Ba       0.38140561       7.64939069       3.16620472      -0.22738271      -0.84862957       1.17058088
Ba       3.37533106       2.70239447       6.71775993      -0.19285116      -0.31486381       0.56024063
S       14.10900298       2.52171673       0.25076769       0.21839802      -0.75322216       0.37326385
S        3.36812319       7.34211454      18.01288235       0.06471363       0.25247766       0.00824449
S        7.22938941       7.35051313       6.39395713       0.19974955       0.51135251       0.63421408
S        3.66470491       2.55076553       2.88241558      -0.34263412      -0.01314603       0.00285051
S        1.42919141       0.45371913       4.87485981       0.07060768       0.06967930      -0.12156335
S        1.93271518       9.68515016       1.59937853      -0.19059626      -0.08510280      -0.81451867
S        5.60609005       5.23964071       2.01387391       0.28324255       0.47143660      -0.42743308
S        5.03481171       4.84400288       5.36145981       0.30053761      -0.20613773       0.31506286
S        5.66673918       9.59432625       2.17494189      -0.18464495       0.13506497      -0.43459444
S        5.08221768       0.38459098       5.38433651       0.43926695      -0.19267103       0.87122452
S        1.54126349       4.55349999       4.82886421      -0.15041739       0.17612340       0.10738903
S        2.01179153       5.39532771       1.38064480       0.25190751       0.19413354      -0.37541990
Zr       0.03509267      19.69418118      -0.01222009       0.01989447       0.27196447      -0.23467645
Zr       3.58623646       0.15511134       3.59594198      -0.91074896      -0.03574846      -0.11838486
Zr       0.09673437       4.91959469      20.75044972      -1.01776890      -0.58908969      -0.23891415
Zr       3.47916864       5.07589916       3.25001052       0.37884489      -0.50676963       1.43690055
Ba       6.89199434       2.20192403      10.33214446      -0.23981274       0.86814483      -0.12645053
Ba       4.23137228       7.30077855       7.23734493      -1.06023432       0.58601781      -0.44247947
Ba       0.05487528       7.39520719      10.44197198       0.81809759      -0.06768185      -0.66465531
Ba       3.46870572       2.08567548      13.60909661      -0.29942687       0.53047977       0.06811668
S        0.21283293       2.49149218       7.30573218       0.07596392      -0.15332930       0.16057272
S        3.54996964       7.46778684       3.95286597      -0.26814980      -0.32002924      -0.42105620
S        6.92391953       7.46222632      13.34816042       0.05905979       0.26029037      -0.25279782
S        3.77627486       2.50374744       9.95063633      -0.29438096      -0.16087128       0.07741153
S        1.44048323       0.28283955      11.76858629       0.06556339       0.37300946      -0.01303362
S        2.16532216       9.38372028       8.47956991      -0.18970233       0.37766275       0.18277690
S        5.53241805       5.06526802       8.90759232       0.79791399       0.40165994       0.08144384
S        5.25358349       4.49310598      12.46109043      -0.68941287       0.23144694      -0.37732287
S        5.70893347       9.54177760       8.97207188       0.35691144      -0.09705947       0.47513718
S        5.20449604      19.76796441      12.14169236       0.01357625       0.49128140       0.49711090
S        1.54940644       4.32324217      11.84142911      -0.04777781       0.23046940       0.36941418
S        2.09368196       5.42299899       8.56754719      -0.46208945      -0.43645008      -0.63729143
Zr      13.99722166       0.10193643       6.84921580       1.22781828       0.02419506      -1.30577969
Zr       3.52366892       0.11307762      10.09954120       0.15219588      -0.27766469       0.77283647
Zr       0.13893853       4.92942218       6.87002229       0.02887521       0.87000236       0.22945959
Zr       3.63097384       5.09367079      10.65806826      -0.39814515      -0.10491979      -0.51944269
Ba       6.51879521       2.61741144      17.35788985       0.58342574      -0.55038379       0.11650788
Ba       3.65354706       7.64835853      14.13427045       0.39281817      -0.29893229      -0.76025344
Ba       0.34127473       7.51165376      17.48892668      -0.71006621      -0.07458078      -0.56060950
Ba       3.07037263       2.22278437      20.57192282       0.72964539       0.71752122       0.26521529
S        0.18052364       2.49482901      14.51698053       0.24879347      -0.58717559      -0.17048166
S        3.41827210       7.49514617      10.97989574       0.35696159      -0.17600846       0.23260532
S        7.17704961       7.39933449      20.50257132       0.02787812       0.22717810      -0.09117143
S        3.44007181       2.44639639      16.84509536       0.15525378      -0.27821276      -0.05808899
S        1.54929312       0.17241783      18.76945652       0.00667628      -0.10953837       0.03339482
S        1.78305611       9.57173053      15.48744139       0.73446318      -0.03502945       0.39130410
S        5.64172599       5.38080699      15.90344707      -0.37739947      -0.17647235      -0.13303217
S        5.03271886       4.50345984      19.32168933      -0.00360782       0.26933245       0.23896796
S        5.60762154       9.41545817      16.07951112       0.05898089      -0.03016340      -0.42823329
S        5.16698935       0.15290309      19.14641609      -0.86187581       0.34893883       0.18725258
S        1.51437802       4.47509324      18.72510980      -0.40042274       0.55180333       0.27050693
S        2.14910466       5.27817684      15.29265486       0.08052859       0.21324634       0.07443489
Zr       0.05386941       0.02438069      13.84990515      -0.10008829       0.23156831      -0.18768752
Zr       3.56268160      19.77762665      17.24153592      -0.37733541       0.31578200      -0.22286046
Zr       0.16922484       4.90884190      13.91562936      -0.16735004      -0.33190938      -1.01322024
Zr       3.53019033       4.97057551      17.28016794       0.38820609      -0.33481337       0.52271836
Ba       6.39931754      12.38730010       3.30564077       0.82616474       0.19617592       0.96111838
Ba       3.83360869      17.56035143      20.66049078      -0.53842343      -0.95546851       0.42588360
Ba       0.50205511      17.60606635       3.34166336      -0.48919103      -0.96293163       0.32568843
Ba       3.10136858      12.09706147       6.83422927       0.33942274       0.85373496       0.21389777
S       14.04431742      12.30414534       0.22811115      -0.10120859       0.28077841       0.53102397
S        3.56663243      17.23296916      17.48904663       0.05280413       0.65098618       0.61987710
S        6.90407746      17.28025359       6.40079224       0.10414178       0.25492602       0.05471245
S        3.28295011      12.39585484       3.14066097       0.41135616      -0.52422463      -0.22395898
S        1.56728820       9.99467839       5.13782337       0.15662982       0.28736960      -0.93343093
S        2.00213365      19.58919403       1.52357752       0.04750809      -0.04113668      -0.62860501
S        5.49216248      15.09801333       1.95171112       0.83565727       0.27769198      -0.51870327
S        5.01133845      14.30134664       5.47539569       0.34049846       0.38836027       0.38279457
S        5.45479561      19.47113574       2.02600465       0.21258690      -0.41799081      -0.34249598
S        5.02975503      10.11203855       5.57899738       0.32562782       0.15881985      -0.05026380
S        1.56261737      14.42032201       4.99508075      -0.71870893       0.40849920       0.15800124
S        2.10176587      15.16987804       1.47886200      -0.42968067       0.17212856      -0.54110713
Zr      13.85867768       9.79212799      20.73980151       1.16406714       1.27241626      -1.17215366
Zr       3.48469163       9.92388788       3.54778927       0.25444806       0.34012896       0.78140174
Zr      14.10031984      14.76327055       0.12276649      -0.07733543      -0.05184085       0.05460694
Zr       3.55853012      15.02090438       3.49790060      -0.17667415      -0.56096650       0.79247139
Ba       6.92619536      12.53789166      10.41547414      -0.36656657      -0.17948096       0.01011359
Ba       3.78670212      17.14607342       7.25222840       0.21789583      -0.00206092      -0.67665558
Ba       0.43581642      17.52115038       9.97203078      -0.07388317      -0.45530751       0.95520673
Ba       3.48567534      12.67737253      13.90307337      -0.77719623      -0.05332488      -0.24773250
S       14.07291335      12.19455580       7.18478123      -0.27644863       1.16826210       0.33857566
S        3.58385795      17.39312062       3.91902145      -0.14134461       0.35088555       0.39791334
S        7.29971331      17.38899886      13.51674701      -0.25805336       0.09052391       0.11580935
S        3.86504358      12.42319189       9.94079812      -0.30396707       0.44391124      -0.01947802
S        1.49337913      10.38035564      11.89867771       0.15959023      -0.08167154      -0.34181791
S        1.97789905      19.53133909       8.23919527       0.67193914       0.45367337       0.16888116
S        5.67978435      15.27295372       9.03700013       0.28177599      -0.17092608      -0.53816116
S        5.01116808      14.84296405      12.37781459      -0.44686344      -0.09814779      -0.16429849
S        5.62237895      19.48630054       8.76253747      -0.30805153       0.01679522      -0.30633725
S        4.86812650      10.36049365      12.62805381       0.61806807      -0.72557080       0.20794131
S        1.29820715      14.66946017      11.73411656      -0.01809191      -0.24845279       0.31033310
S        1.94253126      14.92236655       8.41206109       0.59427854       0.06183664       0.12088890
Zr       0.11895463       9.73212766       7.11428555      -0.21609515      -0.74675863       0.13671950
Zr       3.79196904      10.08615551      10.50306532      -1.57309790      -0.97258579      -0.54747374
Zr      14.09031936      14.72098433       6.92315063       0.26910351       0.13657178      -1.14433077
Zr       3.31654527      14.94690690      10.47210591       0.75656395       0.19865562      -0.22393589
Ba       6.91453351      12.26436432      17.08273450      -0.36611952       0.27363556       0.49528496
Ba       4.27519546      17.41114842      14.27024173      -1.12702245      -0.18065337      -1.19209070
Ba       0.34936229      17.47016584      17.12269035      -0.13302220      -0.37330209       0.35189982
Ba       3.35597800      12.02186699       0.00519910      -0.44222928       1.06530859      -0.14516438
S        0.29271468      12.49264226      14.19615156      -0.24343944       0.08286073      -0.41006256
S        3.46733198      17.40514084      10.74409023      -0.25713608      -0.24146968      -0.36798035
S        7.00869503      17.35691616      20.37775839      -0.01288998      -0.52378811       0.22529530
S        3.60825120      12.19447936      16.92757112       0.18906395       1.00949749      -0.03811597
S        1.29954175      10.44804599      18.79117040       0.80875750      -0.80736114      -0.11831971
S        2.08862194      19.37448049      15.25434656      -0.11337396       0.13461054      -0.10838529
S        5.55249428      15.13213578      15.86533084       0.02956193      -0.50167329       0.19775647
S        5.05524726      14.47399022      19.21947189      -0.03597672       0.14178937       0.43171741
S        5.63868505      19.58550536      15.87423469      -0.11464448       0.34922910      -0.18540539
S        5.05252118       9.94651074      19.30532406       0.06627650       0.22988882       0.38870081
S        1.39775879      14.44422394      18.85198919       1.03415386       0.31439610      -0.73438124
S        2.03741616      15.30293230      15.28023031       0.31810139      -0.14626160       0.27287803
Zr      14.03245244       9.99674728      13.74407744       1.00766731       0.18331603      -0.02874116
Zr       3.35301656       9.77872676      17.41325065      -0.68246266       0.39376285       0.04387476
Zr      14.12858209      14.97631910      13.94817010      -0.31622017      -0.08159808      -0.61113724
Zr       3.47361464      14.72379372      17.37107059      -0.46280326      -0.39137462       0.70595151
Ba      13.54321149       2.62313378       3.53284302       0.96206772      -0.46064800      -0.10786011
Ba      10.71862059       7.44327999       0.09958718       0.15417703      -0.01674152      -0.49914710
Ba       7.70012209       7.25724942       3.18624186      -0.86918462       0.54229749       0.70102884
Ba      10.13310036       2.45541942       7.05448802       0.37846986      -0.34580841      -1.06910793
S        6.92375959       2.43222345       0.73486220       0.15046090       0.23626996      -0.85167718
S       10.62791543       7.50375022      17.61990118       0.06142967       0.04332132       0.22090538
S       14.01701179       7.35720953       6.38951795      -0.10509327      -0.44744500      -0.01762771
S       10.50059512       2.47793178       2.90617307       0.13082217       0.23978436      -0.02947936
S        8.49837914       0.32781794       4.68780961       0.09386369      -0.34848498       0.62278321
S        9.01290904       9.62059453       1.54963988       0.37157730       0.18244814      -0.44035557
S       12.78502064       5.29950861       2.11440830      -0.30854436      -0.08023832      -0.21011640
S       12.04697077       4.41353173       5.62853252      -0.08443468       0.23276892      -0.71304228
S       12.49327624       9.47491563       1.84395163      -0.75363198       0.31855481       1.00318435
S       11.99039710       0.49262658       5.40039355       0.09525218      -0.30578728       0.02181033
S        8.66391821       4.73773796       4.98225372       0.10228014      -0.48853537      -0.17539479
S        9.17934137       5.13332347       1.40380739      -0.14345584      -0.00052204      -0.12230774
Zr       6.83912334      19.82904462       0.08780673       1.07409550       1.11654859       0.18005321
Zr      10.64519701       0.08524957       3.22349753      -0.81414933      -0.78662281       0.57372116
Zr       7.10588930       4.99171282      20.74986290      -0.13412192      -1.66622710      -0.27284622
Zr      10.66779663       4.96575242       3.37290885       0.40606555       0.23103073       1.06338385
Ba      13.62502176       2.47746550      10.21912605       0.83866522       0.08147881       0.75731395
Ba      10.80792574       7.05858164       7.19806200       0.84409869       0.37646252      -1.05956219
Ba       7.78467405       7.12761782      10.12294648      -1.10252618       0.58524315       0.45593874
Ba      10.12143002       2.47816916      14.08996299       0.61174482       0.13750061      -0.56101390
S        7.01155307       2.38594072       7.17173220       0.07353839       0.20344198       0.02288961
S       10.63805675       7.40024244       4.01061776       0.02131248      -0.13440398      -0.40387854
S        0.04948014       7.45955766      13.36047665      -0.22831619      -0.41377272       0.82133775
S       10.44112338       2.40780203      10.00867382       0.52387966      -0.30919614       0.30204781
S        8.61528716       0.35945843      11.90394674       0.73683901      -0.10210477      -0.00759652
S        9.27051229       9.40802752       8.27635698      -0.26437811       0.27594077       0.01118338
S       12.66184610       5.16534662       8.86834777      -0.05116964      -0.38840458       0.31840082
S       12.19432599       4.46757526      12.42302548      -0.17798283       0.12509868       0.07805120
S       12.61181220       9.53993049       8.90206027      -0.36920664       0.56264123       0.28961223
S       12.00099027       0.42281838      12.63827078      -0.17422828       0.05309363      -1.06699139
S        8.67057854       4.59454430      11.94646368      -0.06024889       0.11270047      -0.08355703
S        9.17937945       4.89682515       8.46509580      -1.01005227       0.73168392      -0.13911339
Zr       7.28179418      19.65877952       6.81843337      -0.53484176       0.75239365      -0.11176454
Zr      10.75823330      19.82147692      10.48099497      -0.54641717      -0.40909353       0.68951475
Zr       7.08829683       4.94064648       6.90257182      -0.37262859      -0.52755217      -0.32708722
Zr      10.66700903       4.81590028      10.43769896       1.02073938       0.42491338       0.62668801
Ba      13.73251151       2.33274343      17.58232507       0.15278985       0.10985976      -0.30448232
Ba      10.98767182       7.36125051      13.80356586       0.16550506       0.27368136       0.14848501
Ba       7.51556362       7.11644592      17.42096021       0.01982513       0.90951105      -0.01718729
Ba      10.01791625       2.19887396      20.62373026       0.21819733       0.99607010      -0.02322964
S        6.92552350       2.50158172      14.27985671       0.33310495       0.37808471       0.19837018
S       10.90589595       7.37841554      10.67992809      -0.71063779      -0.03636401       0.25212151
S       13.88216980       7.37245003      20.51050188       0.40404605      -0.09290281      -0.61458663
S       10.69343232       2.59246370      17.12773097      -0.45470579      -1.25460285      -0.49231289
S        8.36531180       0.37739864      18.79066887       0.58544807      -0.11135277      -0.59321500
S        9.03662211       9.72363710      15.20733355       0.36459457      -0.05837278       0.04984564
S       12.80743316       5.12778729      15.90564790       0.21299834       0.51560272       0.03684681
S       11.94277484       4.51646058      19.47752254       0.54217956       0.55176119       0.26860362
S       12.59518734       9.72713783      15.84038459       0.00793463      -0.22811575      -0.08860382
S       12.08354754       0.29449615      19.38130619       0.05024242      -0.15409577      -0.55732576
S        8.54651952       4.49573138      18.70364021      -0.15211918       0.42356128       0.59357716
S        9.28601929       5.30234750      15.32601396      -0.63106649      -0.15310790      -0.16346682
Zr       7.15445507       0.12391833      13.89837883      -0.87218349      -0.63451636      -1.03600900
Zr      10.47903921       0.09398492      17.27173995       0.26869387      -0.09866099       0.58610625
Zr       7.19991441       5.10017946      13.90980633      -0.39695238      -0.27104576      -0.06188729
Zr      10.88299860       5.07329859      17.33189374      -0.68614058       0.11744331       0.73264423
Ba      14.10486736      12.14572672       3.31771066       0.00813809       0.29254342       0.44067737
Ba      10.97342610      17.58653292      20.58511671      -0.08343438      -0.93990742       0.87751702
Ba       7.51251728      17.36948475       3.46006017      -0.21283203      -0.26941773      -0.74749876
Ba      10.54558821      12.18466299       6.66370181      -0.33691189       0.22476675       0.18598704
S        7.04266444      12.42010147       0.31746172       0.04259657      -0.42594623       0.03095261
S       10.24820052      17.36487542      17.72773910       0.09988706       1.13865269      -0.20310902
S        0.20362522      17.42562790       6.59472041      -0.48894404      -0.55162322      -0.30478673
S       10.88365787      12.37990693       3.15580240      -0.16688638      -0.27321923      -0.15063190
S        8.39627545      10.22432885       4.77817155       0.68568157       0.21709460      -0.03237637
S        9.02079765      19.47368381       1.29702203       0.47172921      -0.23345589       0.51407786
S       12.81732682      14.99991552       2.24161939       0.38865544       0.24662023      -0.46104669
S       11.94177268      14.68355367       5.63435561       0.31638895       0.05941079      -0.03307794
S       12.69116533      19.62941619       1.91430469      -0.11030365      -0.06672442       0.18981308
S       12.23885419       9.99918405       5.35766894      -0.14844158       0.13408763      -0.18183391
S        8.45724590      14.57094565       4.73643743       0.02050383      -0.13792396       0.30124776
S        9.32096000      15.23614135       1.35606256      -0.96507843      -0.11445167      -0.73736036
Zr       7.00478848       9.94107796       0.01501614       0.82306861       0.77210740       0.07993314
Zr      10.64070102       9.93875858       3.53229081      -0.47613138      -0.51844025       0.41364680
Zr       7.09179325      14.92648805      20.75153197      -0.02552692      -0.28083460       0.50962183
Zr      10.59584797      14.82460634       3.45207817       0.03452596       0.45718341       0.16199258
Ba      13.46232049      12.44919344      10.30328264       1.15260107      -0.43988420       0.53095833
Ba      11.17930474      17.49739424       6.66233524      -0.63128458      -0.35092516       0.53991173
Ba       7.40569348      17.66706873      10.37863172      -0.23098928      -0.88009870       0.23344223
Ba       9.84295322      12.55713740      13.48119372       1.01168880      -0.33869232       0.60116174
S        7.44040398      12.38140331       7.42531373      -0.10867068      -0.20373059      -0.14401606
S       10.71755220      17.36301692       3.64177259      -0.07154877       0.45433973       0.18820006
S       13.94653302      17.40074692      13.31363318       0.18438131      -0.10329282       0.00895845
S       10.30943055      12.45168858       9.91221646       0.32429896      -0.59378424      -0.04820104
S        8.56826394      10.07982688      11.78850626      -1.11327437      -0.12866706       0.60883367
S        9.18381574      19.53983983       8.41146257      -0.26199324      -0.31151660      -0.45228787
S       12.80448817      15.23641228       8.99758061      -0.85929098      -0.31012029       0.31994818
S       12.03443410      14.56968694      12.45658714      -0.36727357      -0.52920355      -0.45594987
S       12.63110007      19.60782617       8.80493007      -0.65963816       0.09713398       0.84839666
S       12.04900655      10.32999615      12.40035154      -0.86777232       0.13247098      -0.55632253
S        8.41860664      14.78285783      11.73783498       0.74269445       0.00472116      -0.03089745
S        9.31969860      15.26455420       8.26238849      -0.17689232       0.27208230      -0.22080098
Zr       7.21341123       9.93331807       6.93970021      -0.76708491       0.12234045      -0.61317761
Zr      10.42501015       9.95970441      10.37485037       1.34621779      -0.44648438      -0.08739604
Zr       7.20764581      14.87844654       7.01515300      -0.71474935      -0.58458701      -0.17875647
Zr      10.62808438      14.85807885      10.35883094      -0.26686633       1.02213080      -0.03262879
Ba      13.82783512      12.68141867      16.98405311      -0.24298188      -0.80590177       1.34121529
Ba      10.87058284      17.15178258      13.69042301      -0.31977823       0.61870970       1.14851801
Ba       7.16169087      17.40807460      17.38043865       0.24901427      -0.16150106      -0.27030176
Ba      10.45543664      12.52704172      -0.01921498      -0.31408942      -0.24366311       0.03750125
S        6.81274779      12.42554573      13.97273960       0.40300264      -0.45857229       0.38668879
S       10.63675251      17.36250681      10.78335882       0.03434087       0.34460406      -0.57090022
S        0.03993584      17.25969431      20.38568680      -0.04362187       0.56343304       0.00644709
S       10.62304823      12.54591095      16.84259601      -0.11768935      -0.95063689      -0.31858026
S        8.53270402      10.23260674      18.75296227      -0.03252237      -0.23674478       0.09825078
S        9.02818682      19.48553041      15.31930905       0.78101115       0.15532875       0.27770343
S       12.60131213      15.29870776      15.95970937       0.16144206       0.15185075      -0.73012224
S       11.99391546      14.75574386      19.35216374       0.22122883      -0.04318493       0.18503197
S       12.51476644      19.55167512      15.81211902       0.12429889      -0.07289247       0.27187469
S       11.98747161      10.23173748      19.26538859      -0.19491874      -0.21467714      -0.12135305
S        8.41922799      14.38245952      18.67324277      -0.24072068       0.26285437       0.58216556
S        9.03873525      15.17055106      15.30951694      -0.19347931      -0.33250455      -0.27162703
Zr       6.93085496       9.85310537      14.06874684      -0.60203261      -0.15398862      -1.01576469
Zr      10.48564019      10.09640893      17.17711229       0.84383224       0.14339482       0.65093270
Zr       6.93993091      14.95552072      13.84270844       0.82933627       0.48692574      -0.19740367
Zr      10.39142997      14.99557219      17.38276619       1.02642788      -0.38375764      -0.12051914
135
Lattice="13.86874792 4.13611189 4.01638401 -3.41942113 14.54554468 -2.1245357 -4.57493172 1.30452647 14.463847" Properties=species:S:1:pos:R:3:forces:R:3 energy=-256.7817620772403 pbc="T T T"
Ba       1.01638689       3.15065489       2.87286538       0.08127888       0.07455634      -0.44177971
Zr      -4.49715990       1.57572149      14.34160486       0.50091594      -1.15453354       0.53568019
S        9.46010305      18.76302696       4.08139857      -0.12183352       0.38426332       0.93292539
S       -0.07058823       2.63344558      -0.11026798      -0.26108341       0.78945668       0.02777552
S       -1.11475847      14.99714148      -0.95640852      -0.03973442       0.44940222      -0.50147058
Ba      -0.70739483       3.49521483       7.25641990       0.22915477       0.35510145       0.21508778
Zr      -4.78829075      14.87956698       2.54834036      -1.52348350      -0.25923430      -0.24316228
S       -5.03084060      15.05558932       4.98345296      -0.82139987       0.41045390       1.50869985
S       11.51280466       6.92799098       8.35217483       0.77979477      -0.38252598       0.16421638
S       -2.44520939      15.47292558       3.11092444       0.01108652       0.83623892      -0.40068451
Ba      -1.98404334       4.51226941      12.75757247       0.07000454       0.04076336      -1.13138759
Zr       7.42998118      19.48560107      11.48966708       0.10203132       0.55682219      -0.28470341
S        9.86170558       5.40004580      16.00554866       0.24696379      -0.32516654      -0.93250816
S       -3.26427311       3.37951962       8.97916458      -0.31133123       0.21316442      -0.20357633
S       -1.16191507       1.88446451      10.92202779       0.86697577      -0.46008220      -0.67121602
Ba      -0.00580559       8.05454433       1.93431642      -1.01337093       0.12307150      -0.19966247
Zr      -5.57342897       6.31093870      13.73838068       0.37955829       0.61550563      -0.62590813
S       -1.62448657       4.93143255       1.71236375      -0.55855052       0.24168549      -0.53014914
S       -5.94345048       8.73080831      13.13506647      -0.89970736      -1.09876683       0.18187988
S       -3.23709232       7.13787210      14.10246970       0.11800818      -0.23712296       0.46892099
Ba      -1.92117600       8.56757218       7.14330293       0.17889724       0.15444968       0.16835422
Zr      11.21998643       9.33258110       8.05418485      -0.69980991       0.41065140       0.07563892
S       -3.05022375       5.69724277       6.45510677      -0.56124374       0.11848780       1.41230192
S       -3.10298427       7.61820238       3.59126716      -0.12160179       1.14660109      -0.12669828
S       -0.24909137       5.73544467       4.64504064       0.07515557      -0.42612700      -0.05471122
Ba      -3.31803057       9.40837216      11.90417515       0.80680691      -0.17194839      -0.47529733
Zr       9.69072372       9.77550173      12.97461355       0.84723404      -0.03789114       1.24681558
S        8.81764123       9.42918140      15.37163546       0.47258994       0.40228113      -0.94929126
S        8.83830694      12.26995453      12.73546294       0.39077317      -0.54485146      -0.18481757
S       -2.18123021       6.84582292      10.27207717      -0.43854527      -0.21532562      -0.95370872
Ba      -1.35767443      13.11830576       1.50550736       0.19595130      -0.31735735      -0.89398465
Zr      -2.32710525      10.05249508      -1.22542657       0.07473769      -1.02080821      -0.40891140
S       10.49915974      13.82029133       4.91766555       0.04947017       0.40778622       0.52376808
S       -7.34409729      13.55865375      12.38989110       0.05420419      -0.34067283       0.59354364
S        0.11231594      10.09395660      -0.41549788      -0.51407590       0.82171524      -0.32873272
Ba      -2.48182275      13.45987046       5.60359348      -0.60262198      -0.09458472       0.89555411
Zr       9.87551697      14.20282149       7.65234015      -1.21880857      -0.82004591      -1.75283557
S        9.16035892      14.37707978       9.89573399       0.48079559      -0.00772987       0.35746509
S        9.28527471      16.56645983       6.59172491       0.59359839      -0.45890334       0.79784437
S       -1.66100985      10.93605985       3.81675774       0.33643543      -0.27992477       0.22369825
Ba      -4.22202013      13.85546883      10.37065309      -0.11319066       0.14306959       0.89040209