  1.2569933e-06   1.4275497e-09
 -1.4778714e-05   1.1149267e-08
  2.5341481e-06   4.4589036e-08
  1.0210468e-06   2.7129468e-09
  2.0683085e-06   3.6542751e-08
  1.4936644e-05   1.2513941e-06
  8.3706000e-06   1.7987991e-13
  1.1554098e-07   1.6040928e-10
  2.6272394e-06   1.1156532e-09
 -1.2320976e-04   6.0633049e-10
 -1.3137066e-05   5.5852206e-07
  3.3946239e-05   2.1181238e-14
 -7.8935345e-06   3.0339272e-08
  6.1102277e-05   6.1103324e-11
  1.7479452e-06   5.1178711e-07
  9.1785087e-06   1.9020148e-07
  3.4747645e-05   3.8009816e-07
 -1.5832287e-06   1.2832514e-07
  6.8894014e-06   4.1212834e-07
 -9.9521858e-06   1.1523028e-13
  2.2016341e-07   2.0399706e-07
  6.5831141e-06   5.1104523e-11
  3.5824432e-05   1.2079502e-08
  4.0961481e-06   1.9656868e-06
  1.0974497e-05   2.7440432e-11
  1.2942703e-04   6.6936921e-11
  1.9299262e-07   3.0803918e-07
 -8.4640141e-07   2.9269305e-08
 -3.5389650e-07   2.1875864e-11
  5.0970511e-06   5.1931099e-08
  8.3129960e-01   9.0058472e-10
  6.5510726e-01   4.4512293e-12
 -3.9396451e-05   2.2039091e-13
  4.7369987e-05   4.9778727e-12
 -1.7186848e+00   1.8326716e-12
  4.6764026e-06   2.5533233e-09
 -1.2121474e-06   4.5301699e-13
  1.8596992e-02   1.1727541e-14
 -6.0382581e-01   1.0598612e-10
  1.4439453e+00   5.4214029e-09
 -1.8075680e-05   3.6563488e-09
 -1.5223785e-06   8.6361397e-11
  6.1662879e-02   8.6313845e-11
 -5.1384700e-06   5.5271905e-11
  4.7697450e-04   2.5387272e-09
  9.8985456e-06   1.5644558e-08
 -2.1999680e-05   1.2146807e-09
  3.1684309e-01   1.3428406e-11
  2.9936532e-02   5.4126124e-11
 -2.4835113e-01   2.0859003e-10
 -2.6222819e-05   1.9741771e-08
 -5.2708252e-05   1.4339087e-10
  4.6657853e-02   7.1132472e-10
  3.0594018e-01   3.6469874e-09
  3.4869656e-01   6.3435563e-13
 -1.0789583e-05   3.2903921e-07
 -6.7374626e-06   1.4276203e-12
  2.9133642e-05   1.2901383e-07
 -3.8885937e-05   1.0239046e-12
 -2.8086947e-07   1.9057711e-07
  2.0280545e-06   1.6621303e-08
  3.3509565e-05   7.8424523e-13
  3.0757448e-05   1.3012671e-11
 -5.3103645e-06   4.8107616e-09
 -5.5666992e-06   1.4024212e-08
  2.1174275e-05   1.8251112e-06
 -8.2535425e-06   7.8645094e-08
 -2.0478668e-05   1.0813186e-08
  1.0525537e-04   8.5834351e-08
  1.0910692e-05   4.6745829e-08
 -4.4397443e-06   2.8739962e-07
  2.3235982e-05   1.0425143e-09
 -4.5678321e-06   7.6814651e-08
 -1.8276894e-05   8.1442492e-12
  2.8143926e-05   1.2653837e-08
 -1.1985871e-05   2.1872758e-08
  1.4520297e-07   1.7859236e-07
 -1.2821983e-05   2.8363134e-08
 -2.9960720e-06   1.7609478e-12
 -5.4460719e-07   6.4957220e-08
  3.0147945e-05   5.3688645e-06
  8.9105242e-06   2.0233415e-10
 -1.9319814e-06   1.8071128e-06
 -1.0307754e-05   1.2700083e-07
 -7.5024464e-06   1.2141956e-08
 -7.2744001e-06   7.7578849e-10
 -7.8543862e-06   2.9678519e-08
 -1.1274373e-05   2.8656308e-07
 -1.3143689e-06   8.5888970e-11
  5.0495680e-07   1.1081042e-06
  6.7448759e-01   1.1604449e-09
  2.3157141e-01   1.0675314e-09
  5.1510292e-06   2.1783615e-09
  2.1993405e-06   1.1475722e-10
  7.0107158e-06   2.4640238e-11
 -2.4869283e-05   1.9130143e-10
 -1.4880302e-05   1.5015385e-10
  3.2129465e-05   1.2407085e-12
  3.1694319e-06   5.3605178e-09
 -5.0419289e-01   3.5200682e-09
 -5.8652199e-06   3.4193605e-12
  5.2402754e-07   8.8295684e-07
  1.6288361e-05   1.8027292e-13
  1.0393585e-06   6.4994987e-09
  1.5853331e-05   8.6117571e-11
 -7.2909547e-06   1.0290852e-06
  3.7415019e-05   7.5636910e-09
  1.3342967e-05   5.6334440e-13
  1.0436250e-06   1.8754145e-10
 -8.0633946e-03   1.7122642e-10
  1.5125200e-06   8.9009964e-09
 -7.0165438e-06   2.9886973e-10
  8.4573119e-05   1.1530491e-11
  2.5872130e-05   9.9785173e-11
  6.6698551e-02   9.1832932e-13
 -2.1258158e-05   1.5305286e-09
  2.2906772e-04   9.2665947e-13
 -1.3062717e-05   8.1740076e-08
  1.3423670e-04   5.3543765e-08
  8.7191096e-05   3.5485300e-07
 -1.0369478e-06   2.4356002e-08
 -8.9837395e-06   1.3591459e-08
 -3.8947934e-07   1.3701742e-06
 -1.0834057e-05   2.0330479e-07
  5.7874754e-06   6.9526107e-10
  4.1319231e-06   4.4802881e-09
 -9.5860469e-06   5.0628326e-08
 -5.7641291e-06   7.7077926e-09
 -1.3211154e-05   1.7445556e-06
 -2.9263663e-06   6.8008710e-10
  3.0765579e-05   1.6974333e-08
  2.0862230e-05   3.0244239e-06
 -8.7772196e-06   1.0562418e-06
 -3.7362793e-06   8.5589072e-08
 -4.6944419e-06   3.4647940e-07
 -8.5624879e-06   9.5166875e-08
 -8.9665673e-06   4.7365845e-08
 -4.7164458e-06   2.6892358e-06
  4.0944888e-05   1.2705960e-10
 -1.8763329e-05   6.7394268e-09
 -3.4025436e-06   2.3882945e-08
  1.6644399e-05   1.8393271e-12
  2.7160047e-06   3.9029896e-08
 -4.6695810e-04   1.2522587e-06
 -1.5061465e-06   1.7849777e-12
  8.2832167e-04   1.2296814e-10
  5.4847002e-05   5.4575017e-10
 -4.7892877e-06   3.2840253e-10
 -2.9008352e-05   2.6351589e-07
  2.8446544e-07   1.1239511e-07
  6.1842343e-06   2.5393185e-06
  8.5708389e-06   1.9883403e-12
 -3.8494043e-05   1.4905362e-10
 -4.3532491e-06   5.2885672e-11
 -5.1668112e-06   2.7813255e-06
  2.9941171e-05   5.0767834e-08
  2.2314618e-06   1.1748138e-07
 -3.7232159e-08   5.3478239e-10
  1.9355792e-05   1.6854406e-08
  1.2919617e-05   2.5951358e-06
 -2.8533430e-04   6.7168893e-10
 -4.7021736e-06   4.8830265e-07
  4.4175565e-07   7.4354030e-12
  9.6806762e-06   7.8365048e-08
 -1.4719704e-06   7.9198186e-09
  2.0083806e-05   4.3149658e-08
  1.6562428e-05   3.1009091e-09
  2.4507448e-05   5.4354426e-14
 -2.9155052e-07   7.7784401e-09
  1.4333529e-05   9.4685794e-11
  5.6338545e-06   5.2780055e-12
  1.7584025e-05   2.0333898e-06
  2.0621821e-06   2.5493858e-07
 -1.6906739e-05   1.0211116e-08
  7.2379089e-06   6.1535684e-07
 -4.2158354e-05   6.3669270e-10
  4.4264667e-05   1.3429426e-06
 -2.6505545e-06   1.6189566e-07
  4.7561066e-06   5.3206626e-09
 -1.0170164e-05   4.4981998e-06
 -1.9323081e+00   3.3053386e-11
 -4.2012785e-04   2.5634326e-15
  7.4192490e-06   5.5135951e-10
  1.8156270e-06   1.7853052e-12
  5.8652306e-01   9.4400356e-13
  8.7803401e-06   2.2547827e-07
 -8.5521087e-06   5.6383709e-07
  3.9087977e-06   3.6936464e-15
  4.5623895e-02   6.3857375e-10
  3.4183857e-05   7.4347256e-10
 -3.1674580e-07   4.2780831e-12
 -2.9059697e-06   6.1183732e-07
 -1.6643115e-05   7.0043527e-11
  4.4244382e-05   7.9262280e-10
 -3.0719977e-05   2.3225208e-11
 -1.5588475e-05   3.9022409e-12
 -1.4985016e-05   8.4541762e-11
 -3.5508768e-07   1.4545254e-08
  2.2657644e-06   8.6129042e-09
  2.4977287e-06   2.6177440e-09
  1.9610450e-05   8.9015856e-08
 -8.3103732e-06   1.1824365e-09
 -2.0967763e-04   4.8960044e-11
 -2.2659458e-05   9.9522754e-09
 -4.2280546e-05   3.7436230e-14
  8.7043554e-07   6.6476446e-08
 -4.8258509e-05   6.5893738e-07
 -3.7590028e-06   5.9692404e-08
 -8.6308464e-06   5.9795968e-09
 -1.4262614e-05   1.2363245e-08
 -5.6007797e-01   1.8986217e-12
 -7.8053035e-02   1.1893800e-09
  2.3275090e-05   1.9069272e-11
 -5.3526572e-05   6.4282351e-15
  4.8061594e-01   5.1750249e-12
  1.4015212e-05   1.6923967e-11
  3.4035729e-06   2.9815075e-10
 -2.6104650e-05   1.1968016e-08
  7.2389401e-02   7.6396107e-09
 -3.7750196e-01   1.7953872e-12
 -1.0501753e-04   4.6848383e-09
 -6.7878441e-06   3.3452571e-07
 -5.9502118e-04   7.1542945e-09
 -5.6154386e-07   1.5679141e-13
 -3.1087998e-07   8.9478418e-11
 -2.2365983e-05   4.8934577e-08
  3.0400415e-05   3.1912301e-10
 -5.0139774e-05   7.4708111e-15
 -2.6233259e-04   4.5904736e-10
  2.7451335e-02   2.9627645e-10
  1.5376296e-04   9.6842390e-10
  8.9774576e-06   5.7273861e-09
 -7.8056291e-06   3.4951261e-10
  7.5629792e-08   6.1750471e-09
 -1.5425686e-03   3.4686225e-09
 -7.0833848e-06   1.4015229e-09
  2.8612310e-06   3.5673298e-10
  4.3133323e-06   1.4812629e-08
  3.0652896e-05   2.9024511e-12
  8.6567213e-04   5.3387275e-08
  1.6705093e-01   1.4405694e-11
  9.1471862e-05   7.7310885e-10
 -1.8426683e-05   2.1729283e-11
  1.2292189e-04   1.6652842e-10
 -4.5717907e-06   9.3435988e-11
 -6.7970827e-06   7.2832131e-12
 -9.4204806e-06   2.4687028e-09
  1.1382069e-04   9.8957599e-14
 -3.6388349e-06   1.1243451e-11
  2.4498199e-01   2.1088379e-11
 -6.5688237e-06   1.8851646e-06
 -1.7193621e-06   3.8956861e-07
  6.6584507e-06   1.1629719e-08
  1.3323873e-07   2.0560951e-11
  2.0263183e-04   8.7021423e-10
  2.8294096e-05   1.9371142e-10
 -4.9155115e-06   4.4535865e-11
  1.4306921e-05   1.1728947e-11
  6.1684716e-07   9.2424172e-11
 -2.9213240e-04   9.2263697e-10
  6.6366929e-06   2.7684550e-07
  6.8548648e-06   2.3723015e-10
  1.5942614e-04   8.9547788e-12
  2.2160281e-04   6.4003428e-11
  1.6288545e-02   6.2825999e-12
 -8.6474001e-06   1.3416794e-06
 -1.7593100e-05   2.2863789e-08
 -1.0504967e-07   2.0853080e-13
 -4.0439812e-07   1.3844915e-10
 -1.1675050e-05   2.6783673e-09
 -2.0107874e-01   3.2771300e-11
  2.0399179e+00   2.7167161e-11
 -1.3733251e-05   1.0859206e-10
 -1.3155625e+00   6.1304061e-12
  1.0192182e+00   5.6669996e-10
 -2.8382565e-06   9.7338123e-08
  9.9001902e-08   9.2579558e-07
  1.0750668e-01   7.7430445e-10
 -1.5394904e-01   3.6179778e-11
  7.6000556e-02   7.1146177e-15
 -1.5664873e-06   1.3218332e-07
  3.7649784e-06   4.5468882e-09
  2.6337013e-01   4.6245949e-10
 -1.0672646e-01   1.6162853e-10
  1.3662659e-03   6.7381955e-12
 -1.5910337e-05   4.9607724e-11
  1.8574763e-06   5.1217203e-10
  3.9653218e-01   1.1269681e-09
  1.9536902e-01   1.6454583e-12
 -1.2437839e-02   8.2530183e-10
 -5.3525588e-07   8.4991541e-07
  1.4616320e-05   1.6053023e-10
  1.3749340e-01   9.7906385e-09
  4.5919505e-01   3.2129395e-09
  3.1343937e-01   7.4909859e-13
 -1.9448381e-04   1.9350468e-07
  3.7477930e-05   7.7614412e-13
  2.3299654e-07   1.9977858e-08
 -3.6200123e-05   2.9129277e-09
 -1.2517878e-01   5.0533249e-08
 -3.1553262e-01   5.5549082e-10
  1.2232948e-05   3.0679573e-12
 -2.9183961e-05   1.8610973e-07
 -8.4531644e-07   2.1619669e-13
 -1.8461200e-06   3.9132468e-11
 -8.2381239e-06   3.0111906e-08
  3.5308742e-06   2.2088789e-09
  8.3523910e-06   1.9886499e-09
  6.1116903e-06   3.7617057e-10
  1.6642199e-06   5.9331784e-09
  3.9716720e-06   2.2122077e-08
  9.6125768e-06   1.0701766e-10
  5.0970033e-05   4.1810080e-11
  1.5239290e-05   2.4410063e-10
 -7.1097234e-06   6.0413967e-09
  8.3599807e-06   1.5028768e-09
 -1.1297009e-05   2.2560228e-06
 -3.4647971e-07   2.3860538e-09
 -8.5876629e-05   1.0496993e-08
  5.2438668e-06   2.1453377e-09
  1.5095211e-06   3.7435273e-09
  3.7114239e-06   2.1031774e-11
  2.8235691e-08   1.8334578e-10
  2.4208878e-06   9.1097713e-10
 -2.8101707e-05   3.1251322e-08
 -1.2161761e-05   3.1572588e-07
 -5.5887513e-06   3.7776687e-08
 -4.1029816e-05   1.0950797e-08
  6.2513442e-05   1.0708344e-12
 -2.0510577e-06   3.5104404e-07
 -2.9486271e-06   4.8027805e-06
 -1.8646651e-05   7.9280493e-10
  2.8693582e-06   3.7238234e-08
 -2.8575267e-05   2.3896894e-06
  6.1197919e-05   4.4956638e-09
  3.4130419e-06   5.5349205e-09
 -3.8215967e-06   3.5637143e-07
 -6.8330133e-05   3.2287402e-09
 -1.1922504e-05   7.0265074e-08
 -1.0919029e-05   5.3912177e-11
 -1.2547308e-06   2.3423421e-08
 -1.0414549e-06   1.3868023e-09
  3.5360225e-07   2.6721093e-08
 -2.1467890e-06   1.8895322e-06
  4.1698477e-06   1.0991250e-08
 -3.5636862e-05   7.4616970e-08
 -1.5520780e-05   1.6160648e-10
 -1.0814842e-05   3.6025846e-14
  1.9524443e-05   2.2519739e-06
  2.6532730e-06   2.6786932e-07
 -9.2315267e-06   2.1194391e-13
  3.0110828e-06   6.3587273e-17
 -3.1185853e-06   1.4726240e-07
 -1.3096086e-05   2.1004730e-07
 -9.0967469e-06   1.8122739e-10
 -1.0165332e-06   1.0162512e-06
 -3.0108415e-06   2.0792075e-07
 -2.7322685e-04   5.5993318e-12
 -1.2723780e-05   5.5375756e-07
  4.4774897e-06   3.3064058e-08
 -1.7517987e-04   2.4221827e-10
 -9.3503288e-05   6.0924971e-10
  2.1637085e-05   1.6859588e-08
  8.8750176e-06   1.0688637e-08
 -1.3120831e-05   1.5168455e-11
 -1.2208269e-05   1.7464480e-07
  4.5062384e-06   8.1277015e-08
 -1.4349676e-07   6.0115697e-11
  3.1332324e-06   3.6466729e-11
  3.1632205e-06   1.3429523e-11
 -1.1202291e-05   1.6675976e-06
  6.0769994e-06   1.1480715e-06
  1.0050676e-06   5.3282239e-08
 -1.0443038e-07   4.8200343e-11
 -4.1006664e-05   5.0428845e-11
 -2.3516965e-05   8.1475016e-10
  1.1173256e-07   8.9581162e-11
 -7.0170304e-06   6.9196715e-10
  1.7193408e-05   2.5616562e-09
  5.2232867e-06   2.6477808e-08
  4.1381241e-05   1.0709635e-09
 -7.3406113e-07   6.4914906e-07
 -2.4937196e-06   3.9986190e-08
 -8.8946388e-07   4.9998096e-07
  5.7251245e-06   1.3101872e-08
 -3.0629758e-06   1.0168173e-09
 -8.4267058e-06   1.4408708e-07
  1.1161789e-05   1.9153695e-06
 -2.5655741e-06   2.0289237e-06
  6.4294465e-05   1.7971818e-10
  1.2321334e-05   2.8350420e-09
 -1.0638338e-06   4.7771442e-10
  5.7717043e-05   4.9000799e-12
  8.2717486e-07   5.9756667e-07
 -1.6792211e-06   1.8800483e-07
 -1.1999952e-06   4.1700005e-07
 -7.7375435e-06   1.9125866e-10
  5.8290248e-06   5.1996302e-10
 -5.6806039e-06   3.7347569e-08
  1.8545940e-06   7.2738129e-07
  3.8319004e-06   1.0010977e-11
  1.1003177e-06   3.0990699e-07
  2.1191003e-05   7.5669682e-14
  1.0420312e-05   2.5544185e-07
 -1.5553389e-05   2.7417263e-12
  3.1862593e-05   3.4382987e-07
 -2.0045869e-05   5.2000853e-09
 -4.8292068e-06   5.7884231e-09
 -5.1831025e-06   9.8337125e-09
  3.7490874e-05   6.1469294e-08
  3.2566506e-06   5.6233924e-09
  7.7692675e-06   1.2970371e-08
  2.7521912e-05   3.2594635e-08
  1.0764694e-05   5.9280225e-10
 -4.3633088e-05   7.6967190e-11
  3.1922395e-05   6.0979045e-07
 -9.1071479e-06   1.0646930e-07
 -2.6135456e-06   3.6939007e-08
 -9.3120589e-06   9.7323893e-10
 -3.7507205e-06   3.2999774e-09
  7.9596698e-01   2.7147022e-09
  9.4339329e-01   2.9979810e-10
 -7.0969709e-06   1.3473700e-12
 -1.8342049e-01   4.4177467e-10
 -1.1119064e+00   2.9845533e-09
 -3.8431949e-06   9.5782963e-13
  1.0531299e-06   9.9914655e-07
  1.0628600e-02   1.2016279e-09
 -6.4781797e-01   8.1539525e-11
 -5.5999261e-01   8.1475382e-11
 -1.2011038e-05   2.3326147e-10
 -2.0482948e-04   2.7576771e-08
  1.5231267e-01   3.5389990e-11
 -2.6831269e-01   4.1634279e-11
  9.1214508e-02   7.6879275e-10
 -9.2343507e-06   5.2304543e-08
 -6.6677167e-04   1.7806186e-13
  3.8133645e-01   3.3109931e-10
  3.4383947e-01   3.0728038e-09
 -8.1029773e-02   6.9703088e-10
 -1.7896185e-05   1.2857667e-07
 -2.8092904e-06   5.4585975e-08
  2.2631852e-02   6.6690306e-11
  3.2267979e-01   1.6092661e-08
  4.3259123e-01   9.4916595e-11
  2.0621676e-05   3.5551928e-10
 -9.9153085e-06   7.3799988e-10
 -6.7853161e-06   5.4395008e-09
 -5.5360255e-05   1.1186945e-08
 -1.6011202e-03   9.7772890e-10
  1.8103616e-05   1.6679720e-09
 -3.8427635e-07   1.2717701e-06
  1.1397645e-05   3.5762540e-07
  2.3403980e-05   3.3601675e-09
  4.7188291e-06   7.8176981e-08
  7.1433499e-07   2.7321389e-15
 -8.5678630e-07   3.5538159e-07
  4.1051368e-05   5.5112666e-09
  2.3012915e-06   9.8186248e-08
  8.9269321e-07   1.0841124e-09
  2.2114704e-05   4.3833865e-08
  6.5574141e-06   2.1094895e-08
 -4.4659764e-06   9.0009961e-12
 -1.3780914e-05   1.1620006e-09
 -2.9931951e-05   4.7202448e-08
 -1.3973471e-06   2.8899075e-10
  4.6265237e-07   3.2099137e-15
 -1.1870447e-05   1.0087761e-09
 -6.7192209e-06   4.5508283e-08
  1.9391357e-04   1.6987378e-14
 -1.7078721e-05   1.1155722e-11
 -1.5622360e-05   2.2787874e-06
 -2.3769076e-06   7.5160167e-10
  5.4713287e-06   3.9817142e-08
 -7.5556654e-06   8.7630596e-08
 -1.4229668e-06   1.1317157e-08
  1.1745731e-05   9.5104008e-07
 -2.0170353e-06   7.6802792e-10
 -5.2835367e-07   4.4422538e-10
 -5.5699429e-06   2.6422437e-11
 -1.3571925e+00   1.8877973e-09
 -2.7931139e-05   2.2617984e-11
 -1.5755269e-05   9.1669256e-10
 -7.1213407e-07   5.4060428e-10
  1.1182143e-01   2.1928207e-15
 -6.5825539e-06   9.8884961e-08
 -2.2183926e-06   1.8360101e-09
  1.3937167e-04   2.1133596e-12
  2.5069198e-02   4.2719422e-10
  2.3891403e-01   2.0222954e-15
  1.1776349e-06   3.0018722e-07
  4.1164833e-05   4.3792434e-07
 -8.3832227e-04   5.7707853e-13
  3.1463380e-05   1.2505523e-10
 -5.6583672e-03   3.0601854e-10
 -1.8974006e-06   7.0935982e-08
  1.3844935e-05   4.6617675e-11
 -5.4678088e-03   1.7820155e-11
 -7.8805911e-05   2.9600763e-11
  3.3001134e-01   3.7935372e-10
 -5.6806475e-06   6.9473550e-08
 -5.7702550e-06   5.8668905e-09
 -1.2770199e-04   1.2075528e-10
 -2.5460122e-02   2.6268555e-08
 -6.0056359e-02   4.1801413e-11
  4.6563300e-06   1.9140504e-08
 -3.9633937e-06   1.5512640e-08
  1.9737043e-05   3.0072689e-12
  6.5482373e-06   1.0158636e-10
  5.9619501e-06   3.1495162e-07
  3.7771777e-05   4.0602996e-10
  3.4247896e-05   1.9623940e-09
 -5.5511094e-07   1.5628827e-09
  6.5781105e-06   4.1288362e-10
 -1.8838609e-05   2.1747640e-14
 -4.1233702e-06   3.0420624e-10
  1.5989785e-05   4.3796526e-09
 -4.6405830e-06   2.9033960e-09
 -1.9428296e-06   1.9013727e-08
  1.7922559e-05   1.8213389e-09
 -6.2422178e-06   2.8768209e-08
 -1.5080192e-05   2.7375568e-09
 -2.9277344e-06   7.2319123e-10
 -5.7886014e-06   9.3807573e-10
  4.5251779e-04   7.0248385e-15
 -1.9026283e-04   2.3729131e-08
 -8.5061001e-06   1.5587731e-06
  1.6352706e-05   3.7569975e-10
 -9.6206813e-06   1.2846151e-10
 -5.8418877e-06   6.9403866e-10
  9.5745900e-06   3.1263294e-06
 -1.5520988e-06   2.3232694e-06
 -3.1942225e-05   1.4546355e-12
  1.0474994e-04   1.8627025e-12
 -1.9614274e-06   1.1478877e-09
 -1.3734264e-05   1.7368077e-07
  1.5326119e-05   3.7565622e-09
  9.0004896e-06   1.4834705e-08
  3.5423042e-07   1.9901953e-13
  1.9140409e-05   5.0145053e-12
  7.4880904e-01   9.5592432e-12
 -6.4786041e-01   3.1193444e-12
 -2.8023773e-01   7.5534745e-10
  2.7057753e+00   1.4968660e-10
 -3.3549824e+00   1.3980107e-10
 -1.5905549e-05   1.3663488e-06
 -7.3539736e-06   6.1001948e-08
  1.1949655e-01   1.3383409e-11
 -3.6100581e-02   9.0609274e-15
  2.1209943e-01   1.1401367e-12
  4.4551130e-06   2.6210768e-07
 -1.0370963e-05   1.2739734e-09
 -4.3763416e-06   1.8163467e-08
 -2.1916838e-02   2.2803463e-10
 -1.2709877e-05   1.8889414e-10
 -6.7015239e-06   7.3881246e-10
 -1.1089302e-04   1.9876669e-09
  1.7578514e-01   6.0428507e-10
  2.7744209e-02   2.5948699e-10
 -1.3061529e-01   7.6073731e-12
 -6.6287680e-06   5.4316092e-07
 -2.9590628e-06   3.9724703e-11
  5.3830158e-02   5.7180674e-09
  2.9604372e-01   1.0950455e-10
  3.3473402e-01   3.1207612e-09
 -2.9503401e-05   2.1821508e-07
  1.0281144e-05   1.6082350e-09
 -2.9071551e-05   1.7826899e-08
 -1.7389888e-05   3.1678664e-07
 -9.8696873e-05   3.8160042e-10
 -2.6347487e+00   2.1132125e-10
 -8.7209493e-01   1.7735719e-11
  3.3398658e-06   1.9469771e-12
  1.2833972e+00   6.2131478e-09
  1.0648742e-01   5.2083880e-12
 -3.8076309e-06   3.8303899e-08
  1.3850128e-05   1.1008092e-11
  7.1400653e-05   1.0594413e-09
  1.5038857e-01   2.0457136e-10
  6.0626322e-01   2.0241245e-10
 -1.3863258e-05   4.1872788e-08
  2.2662973e-06   7.2317988e-08
 -1.2131109e-01   1.3603015e-14
 -5.1544484e-05   1.4308160e-10
 -1.7631213e-01   3.2899809e-13
  3.1607120e-05   2.1803909e-07
 -5.4511322e-05   1.0706533e-13
 -1.3300946e-01   1.0663647e-09
 -1.2172031e-01   3.2645642e-10
  3.1686734e-02   8.1998180e-10
  2.3157170e-06   6.3132880e-12
  1.1448323e-05   4.9534910e-09
 -1.6235551e-02   5.0757942e-10
 -3.7301913e-01   2.9268052e-09
 -6.8474814e-02   4.7844964e-11
 -2.0298451e-06   2.1861775e-11
  8.5183983e-06   7.0367854e-08
  1.8173621e-05   1.4519088e-07
  2.2234786e-05   1.5317780e-09
  6.2181248e-04   4.5018557e-13
 -7.5801654e-06   2.4860083e-06
 -4.0937034e-06   2.1223470e-12
  1.0240124e-05   1.8822663e-10
  1.5163913e-05   9.0817053e-08
  3.2983291e-06   8.4868773e-08
  8.3057279e-07   8.8079958e-08
 -2.4938499e-05   1.0893228e-06
 -6.6392454e-07   2.6742242e-08
  5.0014619e-06   4.1742110e-10
  4.0717081e-05   8.2316504e-10
 -1.9480080e-05   2.7311774e-08
  4.3952309e-06   6.9848869e-07
  6.7588403e-06   9.4337302e-11
  7.7066088e-06   6.1121419e-10
 -1.6008335e-06   2.1515473e-07
  5.4969582e-06   3.6977164e-07
 -4.4564094e-05   1.4371678e-06
  4.8738275e-06   2.8841515e-10
  3.4921839e-05   9.1352831e-10
  1.0263592e-05   1.0658373e-11
 -2.8385579e-05   1.5253758e-07
  1.7105849e-05   2.0158882e-06
  2.1484861e-05   1.5682915e-06
 -1.8871949e-06   2.5099978e-11
 -7.2299154e-06   2.7739333e-07
 -4.2214864e-07   1.0928132e-11
 -2.5766833e-05   6.4671305e-08
  8.5113388e-06   9.6203991e-12
 -9.3515808e-07   1.0591584e-13
  4.9987812e-06   2.8577112e-08
  4.9690798e-06   1.6486043e-11
 -2.9761532e-06   8.5080572e-08
  4.0691548e-06   2.7202113e-06
  1.8558488e-09   7.3128795e-12
  8.8385023e-06   5.3602239e-10
 -6.5027798e-06   4.1802837e-09
 -2.0974528e-06   9.5143760e-09
 -7.4660302e-06   2.3825499e-12
 -3.4509747e-05   7.7622422e-12
 -9.5239857e-06   4.4431785e-11
 -4.4568911e-05   7.0160138e-07
 -2.4221486e-05   9.7193333e-07
 -2.2233460e-05   3.6234453e-09
  7.9084493e-06   2.2593788e-06
  1.5855492e-05   1.1233517e-07
  2.5025123e-05   8.4513347e-09
 -1.2209771e-05   6.9388852e-07
 -4.0902924e-06   2.1249484e-13
 -1.8515450e-06   7.6263154e-12
 -3.3316314e-06   6.6692638e-07
 -2.9970624e-05   5.2728604e-09
 -2.9168943e-06   1.4746219e-09
  4.6578575e-06   1.4548506e-09
  1.0564348e-05   2.3032960e-09
 -1.9803310e-06   8.4264464e-08
 -1.4331099e-05   2.8731836e-06
  4.1634667e-06   5.8018122e-07
  3.7065448e-07   2.5197851e-11
  1.8001750e-06   1.0749168e-06
  1.5090172e-05   1.1139607e-11
  3.6928890e-07   7.0673556e-09
  3.0640530e-07   3.9902006e-09
 -5.6407359e-08   7.5825119e-12
 -7.5552111e-06   5.3392313e-10
 -4.7455233e-06   8.3390830e-08
 -3.0221350e-05   1.4023976e-15
  8.6268643e-05   1.1166063e-11
 -5.0478197e-06   1.1633464e-06
  6.9209943e-07   2.5633446e-09
  1.4154989e-05   3.5478863e-08
  4.8656052e-06   1.7709507e-07
  2.1017724e-05   1.3481650e-06
 -1.0769691e-05   8.7241094e-09
  7.6397868e-07   6.7911871e-10
  5.1563961e-06   4.6854620e-07
  1.9529059e-06   4.4419000e-11
  2.6634914e-06   4.0146627e-08
  8.7941754e-07   3.9330974e-08
  6.4346423e-05   2.0328127e-10
  6.0228172e-06   2.2851099e-11
  1.1720930e-06   2.6577286e-08
 -3.3343558e-06   2.8136743e-10
  1.8472399e-05   1.0260981e-06
 -2.9840269e-06   3.8554802e-08
 -1.6184753e-05   4.5570978e-09
 -1.0847696e-05   3.9605849e-10
 -1.1140864e-05   1.2191705e-07
 -4.7708068e-06   1.3378625e-06
 -3.4160823e-06   2.7214588e-08
 -3.8861190e-06   7.8598541e-09
 -2.0600392e-01   4.6079481e-13
 -3.2579696e-01   4.2677319e-09
 -7.7610875e-06   1.6540181e-11
  6.2090810e-05   2.0239939e-09
  1.3631448e-01   3.7330128e-14
  1.0747010e-05   5.1002673e-09
  1.4058529e-06   4.6419043e-13
 -5.8614485e-02   3.3435368e-10
  1.0960294e-03   2.6919216e-12
 -6.7464292e-02   1.3487746e-09
  6.8131405e-05   8.8885600e-11
  5.1448897e-06   3.6214338e-08
 -2.0912274e-04   1.7713289e-09
  1.2305723e-05   7.3190266e-11
 -5.0560658e-07   3.3809303e-10
 -7.4728382e-06   3.5448779e-09
  2.1362800e-06   9.3956953e-14
 -7.6358631e-02   1.0792938e-09
  3.5301087e-05   2.1676383e-10
  1.7583549e-02   2.8397211e-12
 -1.7964510e-06   3.2585646e-08
  7.2581879e-06   1.7593475e-08
 -1.0673892e-03   2.0386182e-08
 -3.7032820e-04   7.3013273e-10
 -2.9666211e-02   7.4954896e-09
  3.2420012e-06   3.6372907e-07
 -4.0842888e-06   5.5398658e-07
 -4.3989147e-07   6.5070540e-13
  5.2117175e-05   2.0996094e-11
  3.8702983e-05   3.6057757e-10
  1.3366221e-04   4.1813036e-11
 -2.4008400e-06   7.5321914e-08
 -6.3596340e-06   7.9956482e-07
  3.3726980e-04   8.7321497e-13
 -3.1520590e-06   1.0247744e-10
  8.6938835e-06   1.0176451e-10
 -2.7904935e-06   7.1833659e-12
  6.3200409e-06   1.6058864e-13
  4.5963943e-06   3.9078032e-10
 -2.3572456e-05   3.8306251e-11
 -1.8549697e-06   1.6560278e-08
  1.1844601e-05   1.4672742e-11
  2.8701186e-06   1.4173851e-10
 -3.7486741e-05   1.3723900e-09
  1.6887175e-07   5.2067224e-07
  2.3379731e-05   1.1041197e-09
  5.3919562e-06   3.2259438e-11
  2.1739395e-06   1.5159300e-09
 -1.2855658e-05   9.4153421e-08
  2.3561468e-02   4.8593267e-07
  2.3679388e-06   7.6155547e-11
  6.1055198e-06   5.6778794e-07
 -7.2262381e-05   6.6495301e-13
 -9.8885190e-05   6.6346217e-10
  4.0949133e-05   1.4736065e-08
  5.5686455e-06   1.4027026e-09
 -2.0134466e-05   7.3924149e-08
  9.0655740e-06   5.0801008e-09
  6.8593056e-07   1.8201421e-11
  3.2886417e-04   6.4716500e-07
 -1.9221357e-05   1.7620664e-08
  1.1651057e-06   1.5408493e-10
  3.9585179e-06   4.4848381e-08
 -1.7849841e-07   1.0493565e-12
  7.5013600e-06   1.1084776e-11
 -1.1717902e-05   3.3489687e-07
  8.4521516e-06   4.9990530e-07
  3.6787196e-06   1.8178062e-10
  8.5924248e-06   2.6213109e-10
 -2.7035887e-05   5.7712541e-12
  2.6304012e-06   2.0704796e-07
 -3.2989038e-04   1.7750799e-11
  3.3057553e-05   1.3232795e-10
 -2.7957105e-04   3.9277082e-10
 -1.0375512e-05   4.9490406e-08
 -6.2134541e-06   4.0713584e-07
  9.0411886e-06   3.2250977e-10
  4.3158025e-06   6.4283884e-11
  5.0121751e-05   2.9611236e-09
 -1.0622374e-05   4.5171171e-07
  7.0856668e-06   1.1555326e-08
  3.0897525e-05   2.1243779e-10
  7.4966401e-06   9.0773618e-11
  2.0209206e-06   1.5259713e-08
 -9.6458425e-06   4.2540309e-09
 -1.2548186e-05   2.9092902e-11
  1.7005175e-06   6.5672925e-11
 -6.4288292e-06   9.9407407e-09
  3.6643805e-06   2.3830787e-10
  4.9338428e-06   4.2013035e-08
  5.5953315e-05   2.3431254e-10
  1.7284276e-01   1.5134491e-13
  1.0287182e-06   2.2802558e-11
  8.2274491e-06   6.6223707e-11
 -1.3548180e-02   6.9441241e-13
  1.0827704e-05   1.0248492e-10
 -2.3204142e-05   1.9419515e-09
  8.5145883e-05   1.3894554e-08
 -3.2223500e-02   1.5451640e-13
  5.7268625e-01   5.6811840e-11
  4.1619774e-06   4.5396090e-10
  6.2851218e-06   4.6324253e-08
  5.9291389e-05   2.3246251e-12
  2.6910870e-05   6.9226604e-12
 -1.1877387e-05   7.4397772e-09
 -1.2791120e-05   1.8984587e-09
 -8.7328472e-06   4.4402526e-08
  7.5986713e-06   1.6318097e-10
  1.0439870e-05   1.1319156e-10
 -7.8673820e-06   1.0662835e-12
  2.6423525e-06   3.1279336e-07
  5.6187769e-06   1.1727853e-09
  1.2267970e-04   7.6688558e-09
  1.6932936e-05   1.9294515e-09
  2.7709048e-05   2.6211238e-13
  2.7088701e-05   1.6720998e-07
 -1.0974539e-05   4.6494748e-07
  8.9645444e-05   3.7417315e-08
 -1.5318947e-05   6.8868701e-08
  3.4419502e-06   1.3613319e-10
 -1.2985392e-06   1.9751171e-08
 -9.4652671e-07   2.4093358e-09
  3.9007350e-06   1.7707134e-09
  2.5781960e-06   2.8142098e-08
  8.4162273e-02   1.3280717e-08
 -1.0840136e-05   4.4034743e-07
 -1.9078593e-06   1.1478522e-08
  1.5153100e-05   6.1271059e-08
  6.5502727e-06   1.6916026e-09
  1.3177432e-05   3.0207645e-11
 -1.1460542e-05   1.9906117e-06
 -1.0768927e-04   5.4294995e-09
 -1.0066497e-05   7.2188328e-08
 -1.7618502e-05   1.2828169e-10
  4.5995844e-06   6.9393707e-07
 -1.9591664e-05   2.2081127e-07
  1.0371065e-05   3.0025802e-07
 -6.2850063e-06   1.5859603e-08
  2.7134363e-05   1.7205970e-07
 -5.1790871e-06   2.5698853e-06
 -9.7596439e-06   1.2070903e-07
 -7.3322894e-06   2.1635971e-07
 -1.5141973e-06   3.8700909e-10
 -2.9088205e-06   9.1322573e-07
 -1.5461079e-05   2.9371574e-06
  1.2678927e-05   5.9256301e-08
  1.3913060e-06   1.6914735e-09
  1.2019332e-05   8.4744795e-10
 -1.5102969e-05   5.0027826e-10
 -2.2497139e-05   7.0469021e-13
 -1.9238662e-04   1.3607234e-09
  7.4452919e-07   3.9927829e-14
 -4.0981099e-06   1.3546921e-12
 -5.7488887e-06   6.8116922e-11
  8.1081576e-05   2.1040395e-11
  2.9744990e-07   2.5215384e-06
 -4.3876225e-06   2.1840860e-06
  4.9983000e-06   2.0879067e-09
  2.2116881e-05   3.8897690e-09
  3.6933881e-01   3.7824018e-11
  5.9949111e-06   4.6039313e-06
 -3.9324885e-05   1.6778799e-07
  2.4863068e-05   4.8253096e-10
  2.4586880e-05   1.6731901e-08
 -9.3028761e-02   5.7865653e-13
  7.4233008e-05   1.5809111e-11
  2.1994076e-05   3.2926076e-07
 -3.8290170e-07   1.0381625e-14
  6.2869572e-06   1.1440069e-09
 -3.4178704e-06   4.7805557e-12
  1.8103927e-05   2.4121479e-07
  1.1825378e-04   1.1076105e-10
 -7.9308825e-07   2.0328001e-08
 -1.7845618e-07   5.9494468e-08
 -9.7496913e-06   9.3710554e-08
 -4.8937582e-05   2.6832112e-09
 -2.9100192e-06   2.1947617e-09
 -4.8738991e-07   3.1161426e-07
 -2.0069745e-05   1.0939385e-07
  1.8556879e-06   1.9552378e-07
 -5.1706897e-06   2.2928872e-07
  6.0140337e-06   1.8523352e-06
  6.0239004e-06   1.0674581e-12
  2.0111625e-05   1.0580035e-15
 -2.5005358e-05   7.9671047e-08
  2.0432028e-05   1.9852858e-07
  9.4166871e-06   1.4603012e-10
  7.0325691e-06   3.5858763e-09
  1.8641749e-05   2.2287618e-09
 -5.8062404e-05   4.9051683e-16
  4.7181171e-04   1.1430665e-10
  2.5912977e-05   3.8526676e-07
 -8.5973388e-06   1.0776503e-11
  8.1290491e-06   1.5653674e-08
  5.1544375e-05   1.5405057e-06
  4.8833517e-06   2.4219379e-08
  1.5656496e-04   2.5750919e-09
 -2.3737237e-05   1.5968345e-12
  2.6522803e-06   7.0178612e-07
  2.4469111e-05   4.4680317e-09
  1.2501406e-05   5.6421173e-10
  1.4857829e-05   3.1958026e-16
 -5.4919226e-05   1.0024473e-09
  3.4915651e-05   3.6713736e-06
  1.9316226e-06   7.6188610e-07
 -8.9021096e-06   9.2363779e-09
  2.3164983e-05   6.8163168e-08
  8.1966227e-06   1.2635837e-12
  1.2966347e-06   1.5189559e-07
 -2.1532142e-05   2.1433269e-08
  8.8113126e-07   1.9717255e-08
  2.6625115e-01   3.1759521e-14
 -6.1836751e-04   2.9916188e-11
  1.6778627e-01   9.9810633e-13
 -5.0954081e-06   5.3356670e-09
  4.1974859e-06   2.4102494e-07
  1.2102183e-01   4.6718768e-10
 -3.2962212e-01   1.7466200e-11
 -8.2390696e-01   1.4341960e-10
  9.1363692e-01   1.2849839e-11
 -2.6136619e-05   6.2926081e-11
 -2.7032289e-05   3.3689543e-10
 -1.6652401e-01   1.3547988e-13
 -6.8922500e-06   9.8537078e-07
 -2.2759226e-01   1.3616491e-12
  2.6378107e-06   4.0042465e-08
  6.9417074e-02   1.3536650e-10
  1.4421453e-01   4.2080233e-15
  1.0097951e+00   3.4237027e-09
  5.6819700e-02   2.4844449e-11
 -2.8876916e-06   7.6132807e-09
 -3.7186351e-06   2.4613720e-07
 -1.2571803e-05   5.5543037e-09
 -5.1969874e-01   1.5304238e-09
 -1.1938365e-05   2.1664984e-08
 -9.7685770e-06   2.3865026e-09
  4.4702217e-01   2.8394700e-10
  6.6869147e-06   2.9691492e-07
  4.4389558e-01   2.8407597e-12
  1.7922221e-05   1.6674169e-14
 -5.5334008e-06   1.9011304e-07
  1.8106166e+00   5.3547661e-10
 -4.0427644e-06   2.6443274e-08
  1.0735441e+00   1.5736292e-08
 -9.4229772e-06   1.0484671e-10
 -1.5630838e-05   3.4559397e-07
 -8.8936478e-01   8.4127318e-09