80
Lattice="-1.61559693 6.97151379 11.41809812 5.43410043 -9.75888608 7.77949948 6.3168325 5.13136028 -10.92842427" Properties=species:S:1:pos:R:3:forces:R:3 energy=-140.4162607025355 pbc="T T T"
Ba       1.65278462       2.54515508       2.58694309      -0.32211673       0.54711416       0.58154206
Ba       3.51507703      -1.56133318       1.59499811      -0.24410068       0.51867087      -0.59411542
Zr       0.11035686      -0.05301297       0.03010752      -1.05107702       0.77855166      -1.14115657
Zr       1.12331501      -0.69751374       4.75747713      -2.18863013       0.42383951       0.58268829
S        0.62945442       1.65966378       5.23884087       0.11948751      -1.03222684       0.02455310
S        1.69018534       1.70535676      -0.12088288       1.22759880       0.14650221      -0.46347252
S        3.35111606      -0.32918133       4.27461038      -0.46850354      -0.86928435       0.45507802
S        4.50305400      -0.50788123      -1.03790147      -0.62970037       0.00103822      -0.19807690
S        1.66035465      -1.14799100       7.17232174      -0.78507767       0.25645447      -1.23637578
S        0.64018984      -0.35827694       2.43208754       0.04844143      -0.68354764      -0.08718350
Ba       4.76325965       5.26213692      -3.05728677       0.04062078       0.08936796       0.07661202
Ba       6.61553426       1.08876311      -3.79038390      -0.10946539       0.04583702      -0.39477107
Zr       8.51440042      -7.14291712       2.35768693      -0.77149235      -0.31821501       1.34619240
Zr       4.09842866       1.70574507      -0.47361651      -0.58939785       1.60849796      -0.49732974
S        3.73356864       4.18820268      -0.53639755       0.58363090      -0.87660069       0.08736521
S        4.84759051       4.09709469      -5.67290899       2.31274967       0.48365131      -0.75131426
S        6.40096759       2.16401837      -1.05748050      -0.15821492       0.57460736      -0.56679287
S        7.46789843       2.07176093      -6.62938747       0.43106295       0.51202963       2.01272198
S        4.69555684       1.61091113       1.82274787      -0.55423119      -0.18317326      -0.02627370
S        3.47477618       2.31565983      -3.00721959       0.38744012      -0.55408555       0.42506002
Ba       4.48466986      -2.29901726       6.43628229      -0.58955302       0.52704484       0.29340838
Ba       6.17506688      -6.15194202       5.62787598       0.56237956      -0.73457981       0.12616482
Zr       7.25998769       7.24407399       4.26314275       2.15128807      -0.32620791      -0.26431073
Zr       3.75892295      -5.75179729       8.52693314       0.22096155      -0.57442201       0.48469657
S        3.32093026      -3.41219115       8.98846895      -0.88502965       1.04446452      -0.52538503
S        4.38619763      -3.24328085       3.69417856       0.20394520      -0.38371396       0.48476629
S        6.05807719      -5.06413395       8.49189843      -1.09082980      -1.02119573      -0.23716685
S        7.06967029      -5.36087427       2.95813222      -0.19483579       0.92979569      -0.07815377
S       10.24673416      -0.68543826       0.15659872       0.54927485      -0.60173517       0.49870433
S        3.33620870      -5.37508866       6.11304536      -0.59903997       0.33167273       1.08078951
Ba       7.59075104       0.39924452       0.89133103      -0.21808981      -0.52693622       0.68146154
Ba       8.99291979      -3.88023800       0.17696277       0.56513020       0.14936156       0.53021828
Zr       4.24597984       4.63120630       9.82113354       0.79484117      -0.43262104       0.17179966
Zr       6.69269207      -3.01191392       3.33517799       0.78061936       0.10158756      -0.19066479
S        6.33188168      -0.64994414       3.48531044       0.97545862      -0.18694108      -0.25743952
S        7.77251029      -0.81491534      -1.84871135      -1.32069703      -0.62287015      -0.18619992
S        9.04742628      -2.57694969       2.84257783      -0.78114814      -0.37833983       0.29684900
S       10.43484016      -2.99761542      -2.03546079      -0.31209287       1.01138687      -1.38232004
S        7.28070954      -3.29260457       5.80548734      -0.09510632       0.24949056      -2.36359407
S        6.36099189      -2.74745250       0.79776565      -0.24303794       0.30558147       0.68899314
Ba       0.90617507       6.34907934       8.05722591      -0.48517070      -0.26854172      -0.30116956
Ba       2.62562615       1.97845403       7.42162287       0.00766907      -0.21064961       0.16036717
Zr      10.87856286      -1.15740973       2.56221647      -0.31462057       1.46319888      -0.93203969
Zr       0.19430765       2.77107594      10.40101593      -0.39600455       0.59809841      -0.29686438
S       -0.06206691       5.26727784      10.68483428       0.62123191      -0.97658697      -0.17434013
S        1.00119818       4.87901332       5.18435311      -0.25219929       0.44547463       0.59620177
S        2.47429665       3.02888102      10.26573804       1.42554559       0.73867854      -1.04855959
S        3.63434511       2.90622067       4.80450566      -0.99690091       1.56247899       0.41211616
S        0.71520383       2.55714329      12.84971367      -0.63168067      -0.40692359      -0.22842247
S       -0.21544057       3.33778194       8.05286141       0.16590658      -0.37855923       0.38616024
Ba       3.93729607       8.69250338       2.92016764      -0.80672025      -0.67658855      -0.64269022
Ba       5.75362112       4.51727969       1.61884820       0.18618497      -0.03407748       1.08730589
Zr       2.53719974       5.97840294       0.28394915       0.63137616       1.26529069       0.54902406
Zr       3.29575632       5.34331363       5.00539057      -1.46917495       0.20768908       1.15661118
S        2.81668494       7.75430394       5.59107730       1.56498729      -2.42162987      -0.73737624
S        4.27676836       7.73049388       0.02109840      -1.44676105      -0.94523340       0.89787173
S        5.50673416       5.76157080       4.46039474       0.48801397      -0.55192910      -0.45193384
S        6.69435772       5.50700606      -0.89202025       0.66145307       0.27117918      -0.40343769
S        3.70916921       4.90721694       7.42837378      -0.45093511       0.59241414       0.09631025
S        2.85447860       5.52671000       2.67036958       0.57124334       0.62318814      -0.79001799
Ba       3.51699743       1.22233732      12.15576684       0.14294718      -0.28320600      -0.07207473
Ba       5.28660743      -3.03243633      10.95853470       0.52764858       0.34013817       0.48131598
Zr       1.94843560      -1.43913160       9.50542878       0.56112296      -0.19999383       1.13595550
Zr       2.84744525      -1.88647805      14.33462527      -0.50851141      -0.62427369       1.65395163
S        2.74798077       0.48310728      14.80539393      -0.97156741      -0.42009595      -0.34984863
S        3.78579753       0.13834484       9.41058929       0.00648626      -0.63561425      -0.18306237
S        5.10081027      -1.84953476      13.64459764       0.65214356       0.43872732       0.06193916
S        6.52342515      -1.87932005       8.40818008      -0.43269947       0.90082812       1.29728859
S        3.23878394      -2.03635673      16.85255490       0.14960597      -0.76176143       0.63494481
S        8.59665799       3.31247458       1.08043018      -0.12390465       0.62646874      -1.22348114
Ba       6.47315524       4.02338474       6.62700365       1.32307301      -0.61940437       0.72225085
Ba       8.46118865      -0.33532918       5.73744108       0.59216458       0.21159768      -0.77506471
Zr       5.09911074       1.20059625       4.36803728       2.22358957       0.19368524      -0.07291074
Zr       6.25133715       0.43012370       9.11529195      -1.01372043       0.02177399      -1.50712917
S        5.62565026       2.79994494       9.21302838       0.55856122      -0.57690974      -0.28915172
S        6.80534492       2.84652586       3.99519211       0.40836249       0.18242982      -0.72036229
S        8.56344697       0.60416229       8.56152992      -0.44358440       0.56340793      -0.00258867
S        9.51624323       0.82561173       3.14116609       0.05340652      -0.55580749       0.51714036
S        6.29546313       0.13916485      11.42086336       0.67936161      -0.21423295       0.13963585
S        5.93139654       0.83734646       6.62566068      -1.21139221       0.18541963      -0.27143274
135
Lattice="14.18503395 -1.3311959 2.6079987 1.35044853 14.40571265 0.87368747 -2.75257062 -0.6420579 14.17006394" Properties=species:S:1:pos:R:3:forces:R:3 energy=-256.4420233860146 pbc="T T T"
Ba       1.80209925       1.95200454       2.85450646       0.15450593       0.12629700       0.01629810
Zr      12.74566029      12.28506832      17.47694267      -0.00658276       0.64373629       0.37168046
S       14.91535764      12.84150252       5.81497789       0.39998265       0.09898508      -0.76029722
S        0.24709467       2.35056061       0.28922000       0.00310139      -0.50271284      -1.05835138
S        0.88868709      13.24763104      15.24362987       1.10701824      -0.38295289       0.73106749
Ba       1.10570890       1.96032532       7.98681863       0.03862133      -0.45816276       0.14407623
Zr      -0.73416656      -0.11375953       4.69562375      -1.68536860      -0.92747586       0.45639055
S       -1.22930366       0.31611679       7.10110909       0.39176635      -0.33668941       0.26402815
S       12.93494057       0.87683202       7.20109813       0.10926822       1.39462933      -0.45023948
S        1.48483798      -0.13926563       5.51830524       0.67989573      -0.09174691      -0.20502950
Ba       0.24945691       1.16828225      12.49339377      -0.92982838       0.82957047       0.02822102
Zr      13.60893151      12.61387587      12.69411692       0.96751749       0.18206825       0.78591642
S       -0.82822037      13.39786125      12.50519377      -0.18671858       0.07252416      -0.20926299
S       12.22026255       0.58797135      12.58584278       0.13065414      -0.12607831      -0.20509582
S        0.64001822      -0.61830626       9.75656406      -0.24954228      -0.34923658       0.09485927
Ba       2.82536936       6.79921567       3.32822197      -0.96225790       0.38770424      -0.02590045
Zr      14.55241420       3.54366568       2.90342880       0.40155352      -0.16736704      -0.56233913
S       13.89124981       3.45248976       5.24967515       0.16229992      -0.24675010      -0.39886098
S       -1.81172458       6.62572839      14.21477833      -0.08084239       0.04845106       0.46787169
S        2.66274158       4.56983701       1.21827454      -2.39658043      -0.27532656       0.13221322
Ba       1.93017208       6.74875011       7.89357090      -0.72283059      -0.11475909       0.07172052
Zr      13.62546065       3.20008328       7.75103944      -0.62385186       0.76978743      -0.54820666
S       12.74740527       2.96988807      10.00972510       0.00585952       0.00613205      -0.15451837
S        0.28719230       6.88091938       4.99819980       0.15951178      -0.43709967       0.62246954
S        1.66078354       3.79304357       5.70864845       0.51387160       0.31916140      -0.62468105
Ba       0.66520694       6.48469284      12.34449323       0.46097212       0.39837965       0.33916200
Zr      12.57004130       3.01578939      12.45383480      -0.43971525       0.02136842       0.75001995
S       -1.20995264       4.11676035      12.26644404       0.03327812      -0.56282292       0.07376358
S       12.98167667       5.50104674      12.67462040      -0.46209639      -0.01663585      -0.39498782
S        0.92568333       4.38627575       9.76655367      -0.79288709       0.38531672      -0.35793910
Ba       2.91010056      11.62866585       3.93145409      -0.07196451      -0.36263581      -0.98368800
Zr      -1.72773532       9.01108315      14.77630410      -0.07964427      -0.37030349       0.35563456
S        0.47905563       9.27289989       2.94376485       0.60583414       0.34438538       0.37341019
S       14.70250050      10.67031636       3.40344393       0.52094852       0.33123863      -0.28338388
S        0.60206879       9.68213681      15.07356585      -0.14945634      -0.09890502       1.33638138
Ba       2.49249552      11.65103790       8.37258952      -0.03501952       0.14058283      -0.29724970
Zr       0.11032840       9.32605593       5.44172833       0.33156711       0.15862739      -1.62749432
S       13.46386449       7.34124707      10.08551295      -0.49188500      -0.20540062       1.81854312
S        0.26160680      11.78742304       5.52957356      -0.11658768      -0.26782836       0.48015421
S        2.49978384       9.44336731       6.09045464      -0.46992779      -0.30797428       0.22917041
Ba       1.37787567      11.29961602      12.70943913       0.27961083       0.12425611      -0.21656797
Zr      -0.73298424       9.23378944       9.92508754      -0.37654172      -0.00326186       0.18418767
S       -1.11354892       9.37121439      12.39152928       0.02147587       0.29973250      -1.38416527
S       -0.32590129      11.60062545       9.42435353      -0.48936746      -0.15406814      -0.04184390
S        1.69896761       9.11959975       9.90157526       0.26868218      -0.24800993       0.51953171
Ba       7.10591906       1.93181068       3.88549204       0.01441123       0.20963548      -0.19725494
Zr       6.11434186      13.85093443       1.82646078      -0.58868791      -0.22961019      -0.43443511
S        5.22223707      13.48802703       3.97527178      -0.36645914      -0.10554070       0.79994664
S        4.72450397       1.97162539       1.28406928      -0.14772358      -1.07523653      -0.47175297
S        7.03420862      -0.42687090       1.80028070       0.41736578       0.10977972       0.04218929
Ba       6.18281567       1.52251754       8.82877418       0.12116960       0.07008876      -1.03156266
Zr       3.96348581      -0.50237652       5.53583302       0.56036073       0.85479531       0.02519815
S        3.80282986      -0.22636769       7.97239679      -0.23688351      -0.46081520       0.21484937
S        4.18001666       1.80220368       4.67024537       0.04828441      -0.49992065       0.31734364
S        6.48125629      -0.59638602       5.58765327      -0.63738751      -0.29011267      -0.05690415
Ba       4.56359619       1.35442304      13.53597798       0.65201161      -0.15544608      -0.25094813
Zr       3.02740181      -0.74651564      10.34612936       0.67637890      -0.31264110      -0.42590199
S        3.93131147      13.24823414      13.63370952      -0.00837375       0.09709100      -0.03816999
S        2.65545862       1.55455066      10.85706564       0.29182592       0.49263303      -0.07542091
S        5.39099269      -0.36239113      10.99823808      -1.26289689       0.13156980       0.02776095
Ba       7.18865713       6.43520302       4.08335954       0.50447996       0.13517621       0.03374445
Zr       4.90504789       4.36499124       1.16056722       1.69509165       0.32185046      -0.41486192
S        4.91086596       4.65852113       3.57783803      -0.23193685      -0.15962621       0.08989787
S        2.03972016       6.23814265      15.16803202       0.32251815       0.19730828       0.18405678
S        7.33672686       4.29338775       1.63945819       1.24687415      -0.00766156      -0.09753481
Ba       6.21776590       5.84614267       8.82476814       0.29235118      -0.02047637      -0.08799119
Zr       4.12758579       3.98571186       5.74086897       0.90773850      -0.43212668       1.14904995
S        3.81453586       3.52791567       8.15264222       0.15797820      -0.00386462       0.38791278
S        4.32446246       6.43492427       6.15359265       0.40493062       0.52079147       0.04374573
S        6.61434575       3.61162541       6.40039500      -0.63282851      -0.20170896      -0.10007100
Ba       5.18143445       5.75820989      13.50670133       0.18940333       0.17567828       0.11936585
Zr       3.10577308       3.91797688      10.54730800       0.49918027       0.06196087      -0.20919567
S        2.44090252       4.11181797      12.89513858       0.32238170      -0.91776315       0.28023786
S        3.63423273       6.27493022      10.53184552       0.18013955       0.98367588       0.33319891
S        5.49054874       3.49717463      11.08431299       0.58458142       0.05977132       0.09880436
Ba       7.67747541      11.34380051       4.49948056       0.02693088      -0.04558118      -0.15298994
Zr       5.46326379       9.11758623       1.49543807       0.01638137       0.36726268      -0.57835091
S        4.98449017       8.92789312       3.79571131      -0.35566279       0.24339405       0.89276455
S        6.41743377      11.38094373       1.72878971      -0.10812575       0.83420605      -0.13223550
S        5.14562619       7.95546557      15.94272057      -0.25585140      -0.04258904      -0.11716617
Ba       6.89492453      11.22568878       8.81516519       0.61855521      -0.37232066       0.24283535
Zr       4.88779391       8.94135642       6.30848319      -0.36254064      -0.57392233      -0.06975523
S        4.86993896       8.65553140       8.67744895       0.17837164       0.36782733       0.52118637
S        5.05788160      11.45484521       6.51209469      -0.31450645      -0.04659868      -0.36131572
S        7.24511698       8.84316663       6.16326620      -0.20057031       0.39479297      -0.00872630
Ba       6.02682513      10.84501928      14.07297962       0.15524834       0.07849277      -0.33776589
Zr       3.98445679       8.78603520      11.07915986      -0.49572347      -0.73875650      -0.66282613
S        2.90290971       8.61914891      13.20174804       0.33876821       0.04132643      -1.09645066
S        4.38911966      11.19944303      11.01571733       0.13801786       0.21927355      -0.33427567
S        6.08156666       8.43566704      12.08862573      -0.53973207      -0.48438890       0.05129034
Ba      11.79414887       1.26442042       4.39800744      -0.16663651       0.45026317       0.09415839
Zr       9.46734554      -0.84531289       1.90432682      -0.17554076       0.22018461      -1.04738356
S        9.96174528      -1.03800765       4.26534525      -0.23965514      -0.17162202      -0.15979774
S        9.70673081       1.60031504       2.06175884      -0.25946412      -0.64155475       0.08919231
S       10.44556626      12.61002025      16.76845988       0.36562448       0.91040955       0.06784003
Ba      10.61209426       0.72766604       9.35170612      -0.26129444       0.50489417      -0.29032238
Zr       8.78003012      -1.11455032       6.35789216       0.19144706      -0.52900128       0.65742832
S        7.80715506      -1.12925534       8.66411069       0.05666622       0.04106273      -0.78561804
S        9.24181776       1.29524473       6.33332025       0.16342092       0.24850477       0.24446909
S       12.26901803      12.72563461       8.31878961      -0.43290414       0.24395519      -0.24350638
Ba       9.41541467       0.74576493      14.05421399       0.30136746      -0.10350459      -0.10634525
Zr       8.90827127      12.97458722      11.91042997      -0.02222099       0.76394261       0.98016756
S        8.39365076      12.97733614      14.38066934      -0.15021061      -0.32980999       0.57093084
S        8.33301808       1.03582542      11.20049494      -0.33458237      -0.32773556       0.18811105
S       11.30410574      12.59414951      12.15839151      -0.38769982      -0.58825157       0.20500316
Ba      12.20088820       6.01788792       4.93677573       0.90264742       0.02747101      -0.21527555
Zr       7.21082887       3.33221951      16.11178858      -0.78362703       2.00064545      -0.19343909
S        9.72924974       4.24303764       4.34517549      -0.27078130      -0.37766277      -0.21926573
S        7.56501282       5.78493227      15.60072734      -0.25718880      -0.71394280      -0.05479325
S        9.61219478       3.14386534      16.02385085       0.88958186       0.09140626       0.46305928
Ba      10.86099951       5.65703178       9.93709689       0.11813227       0.14687998      -0.01651751
Zr       9.11301406       3.71516270       6.73192421      -0.24447739      -0.23870150      -0.62959596
S        8.71691246       3.48117608       9.11931138      -0.13861812       0.01025354       0.56001465
S        8.52556016       6.01976762       6.84379704      -0.17541522       1.05977996       0.42019965
S       11.37559804       4.27775839       7.24052660       0.69242998      -0.18953444       0.52669151
Ba      10.41319916       6.10878613      14.42486925      -0.41115576      -0.63499775      -0.00545400
Zr       7.93290645       3.45389544      11.43643519       0.24720649      -0.36240227       0.36762402
S        7.27640375       3.02572595      13.70170863      -0.84073354      -0.34390665       0.26957144
S        8.19590175       5.90089012      11.66797357      -0.41351131       0.24148462       0.20697008
S       10.16128885       3.54355911      12.48569537       1.34984522       0.05316867       0.31034387
Ba      12.53024287      10.64875831       5.29769279      -0.21948704      -0.64683281       0.65699676
Zr      10.24677427       8.75310436       2.34427750       0.54589315      -0.85093180       0.31212196
S        9.94545611       7.76199675       4.59367264      -0.30226246       0.90345871      -0.53011947
S       10.37737815      11.19282377       2.91714238      -0.44633987      -1.21457624      -0.20907649
S       12.69695388       8.36306925       2.81407427       0.14342897       0.17963692       0.09674514
Ba      11.51807998      10.29254786       9.87854401      -0.19598394      -0.07214628      -0.28913412
Zr       9.51613042       8.29138046       6.95585871      -0.13539244       0.04210842       0.16333396
S        8.83964610       8.20410498       9.31996070      -0.38305088       0.34129702       0.62595997
S        9.88715076      10.75738293       7.03508803      -0.76464725       0.55373990      -0.26060626
S       11.81063173       8.05675615       7.50267665       0.70252734      -0.25695615      -0.20851505
Ba      10.71010946      10.38975025      14.71582604       0.06424614      -0.00534308      -0.09500474
Zr       8.50012825       8.31717582      11.81758856      -0.00328959      -0.06350013      -0.56425765
S        8.28131691       8.69959319      14.26244845       0.36581526       0.11069345      -0.28309696
S        8.15212964      10.76426243      11.51575940       0.10415385      -0.31270587       0.10467552
S       10.91445605       8.34307446      12.17809868       0.46759700      -0.03002419       0.25733255
80
Lattice="-6.83101204 5.72785895 10.22480996 8.07556051 -5.58232331 9.71465455 4.98352719 7.43065576 -10.51881298" Properties=species:S:1:pos:R:3:forces:R:3 energy=-150.9978613825515 pbc="T T T"
Ba      -0.38563733       3.33097805       2.55502664       0.24481103       0.11507322      -0.30796618
Ba       3.22216147       0.57913551       2.45729495       0.38786806       0.20863701      -0.54312660
Zr      -6.68629203       5.61077009      10.02880302      -0.58444534       1.53968695       1.01954293
Zr       5.22315692       7.47576837      -5.57889698       0.26622765      -0.00388463      -0.98786845
S       -1.15620768       2.15456653       5.22894834      -0.17896891      -0.93709027      -0.61687559
S        0.96318192       2.22227226       0.11378162      -0.63248355      -0.39145913      -0.67231095
S        2.10137624       1.61850485       5.01075122       0.13644191       0.28963783       0.09023188
S        4.28402074       1.69833303      -0.22161765       0.89031300      -0.94358236      -0.08569134
S        5.34890656       7.53412409      -3.11073117       0.31512024      -0.69627938       0.81684846
S        0.18726469       0.06734248       2.43298528      -0.60162539      -0.15452489       1.01211174
Ba       1.93492805       7.24134473      -2.87999329       0.01986615      -0.83777604       0.01339265
Ba       6.07025019       4.22954329      -2.87510170      -0.27592314       0.13351531      -0.00176265
Zr       2.48749327       3.80927480      -5.20634478       0.04777133      -1.05012664       0.10005757
Zr       2.94511386       3.59659542      -0.28025182      -2.23350510       0.26299388      -0.27482033
S        1.30246338       5.64703410      -0.31073171       0.82429129      -0.46498368      -0.19181657
S        3.28958968       6.04792116      -5.30868692      -0.11708657       0.34574658      -0.11029087
S        4.62739317       5.19693891      -0.20552959       1.43566545       1.55525217      -0.83104132
S        6.62264328       5.40975673      -5.61193291       0.37964062       0.97391599       0.32752657
S        2.89267080       3.73053737       2.13158377       0.14589018       0.39693209       2.30658754
S        2.73837503       3.65704510      -2.71810255       0.02494492       0.02130020      -0.64892804
Ba       3.77649386       0.64955145       7.35606876       0.06849213      -0.40549048      -0.37668755
Ba       7.53890993      -2.31417660       7.25408964       0.06420563      -0.12174667       0.32040682
Zr       2.11180673      10.33427965       4.43997952       0.31484136       0.93953675       1.18880798
Zr       4.46799738      -2.78879069       9.83705225       0.00035674      -0.42054272      -0.52348609
S        2.88392184      -0.87008559       9.81258238       0.13504039      -0.55043562       0.05939033
S        4.76736145      -0.44153931       4.70732698       0.50221246      -0.25430215       0.16960928
S        6.26894480      -1.22096095       9.74661545      -0.18763016      -0.42836906       0.40635096
S        8.24328063      -1.04971787       4.69941849       0.12953932       0.38196296      -0.24138379
S        9.43523535       4.63356078       1.85470116       0.12081490       0.09424869      -0.82897677
S        4.39885280      -2.68855800       7.30069741      -0.71059786      -0.16643070       0.36993698
Ba       6.21012922       4.11961832       1.98124037       0.21717329      -0.23550312       0.07987626
Ba       9.97192010       1.35319496       1.84927158       0.36658784       0.16543905      -0.10379086
Zr      -0.25552133       6.53214642       9.73881406      -0.66543943       0.67174627       0.02894301
Zr       6.82627251       0.89777206       4.45726254      -0.60254751       0.36383743       0.86435080
S        5.34200617       2.90568909       4.54440402       0.00193522      -0.25893951       0.25108193
S        7.49239437       3.00378858      -0.57607074       0.69743278       1.13890560       0.04530152
S        8.74579980       2.47138032       4.31236908      -0.47815423       0.09801063       0.20546939
S       10.87767193       2.68109687      -0.76307288       0.07886366       0.34525825       0.44972356
S        6.88126776       0.99643985       7.11753994       0.01632018       0.14140924      -0.87552464
S        6.76709134       0.83252267       2.03293783      -0.15006938       0.02311564       0.09373807
Ba      -3.74854535       6.04543251       7.48145188      -0.07963592       0.88424350       0.39263558
Ba       0.18384307       3.22904639       7.47698870       0.21371904       0.62242819       0.00805685
Zr       4.64852739      -2.65537460      14.78292765      -0.29196750      -0.31830714       0.24696049
Zr      -2.98717378       2.80806684       9.98094209      -1.46446972       1.02178584       1.16028870
S       -4.48233394       4.85841835      10.24359226       0.67304080      -0.71477354      -0.22688840
S       -2.57400725       5.19811280       4.95789817      -0.16112521      -0.20592893      -0.59214202
S       -1.13070932       4.33882819       9.95346704      -0.11838884      -0.57539134      -0.17006096
S        0.91586622       4.86046376       4.85365290      -0.17380381      -0.42787136       0.17804116
S       -2.82019037       2.85920976      12.57413994      -0.48396246      -0.08561182      -1.13311152
S        1.40126999      10.42516926      -2.85772118       0.76635845      -0.10376530      -1.28421038
Ba      -1.07093217       9.74097111       2.18964238      -0.65601805       0.48982088       0.11655368
Ba       2.48737714       7.03943721       2.15050775      -0.00141688      -0.31835830      -0.80285218
Zr      -0.84299783       6.60746436      -0.13345896       0.25183554      -0.44358702      -0.39145814
Zr      -0.70156120       6.72951176       4.85704449       0.35287311       0.00601280      -0.87404442
S       -1.97778194       8.75435041       4.85587597      -0.73617280      -0.20121093       0.15024317
S       -0.08150256       8.88746932      -0.34747341       0.76440117       0.23515247      -0.43803403
S        1.37835051       8.06194856       4.65813373      -0.36328769      -0.02516375       0.55577480
S        3.42438993       8.44376528      -0.69244027       0.34640894      -0.72875144       0.68307764
S       -0.52977973       6.59387409       7.24843507       0.12177186       0.00032742       1.31475978
S       -0.72670276       6.61042942       2.36287207      -0.01766168      -0.02610394       0.14228298
Ba       0.25166091       3.31778878      12.44595033       0.46322956       0.27623981      -0.23865036
Ba       3.87780492       0.70749833      12.24728731       0.33336766      -0.81828268       0.17565655
Zr       5.65684304       7.40558270      -0.64884981      -0.40453089      -0.41225746      -0.30185287
Zr       5.84230019       7.51788395       4.25068056       0.52242301       1.60107376       0.60557054
S       -0.58302066       2.09914198      14.97195531       0.53391235      -0.59536473       0.35162423