[{"__ndarray__": [[69, 69], "float64", [53.392062473099855, -1.3146886362046844e-06, -0.2124298108464838, 16.607937526900063, -4.38220485029535e-07, 0.21242981084647827, -16.607937493860828, -1.3146886362655022e-06, 0.21242829555756207, 16.60793755993437, -4.382204850295371e-07, -0.21243132614225468, 3.3037558407208964e-08, 2.178407944731899e-20, -1.4295802728049114e-20, 3.303755840944082e-08, -8.76440970063838e-07, -1.4295802728049114e-20, 1.769956454607567e-20, 2.178407944731899e-20, -1.5152885402725473e-06, 1.769956454607567e-20, -8.76440970063838e-07, -1.5152885402864041e-06, 0.2841384629010743, -0.23074004055855787, 0.05044977310990844, 0.28413846290107375, 0.23073916409817058, 0.05044977310990846, -0.28413839680268654, 0.23073828763851045, -0.05045280371880531, -0.28413839680268704, -0.23074091701421917, -0.05045280371880544, -0.2841383637743082, 0.23073828763851129, 0.05045128841419008, -0.28413836377430846, -0.23074091701421906, 0.05045128841418931, 0.2841384298467124, -0.23074004055855796, -0.05045431901618792, 0.28413842984671356, 0.23073916409817136, -0.0504543190161856, -0.2467673539861155, -1.314688636204686e-06, 0.003009734647659461, 0.246767420050916, -4.382204850203079e-07, -0.003012765241261914, -0.24676738701549222, -1.3146886362655033e-06, -0.003014280535424005, 0.2467673870154928, -4.382204850295357e-07, 0.003011249943389971, -7.631017360263388, 1.786910245711556e-33, 0.0, 1.448877375397233e-33, 1.131193851416752, 0.0, 0.0, 0.0, 2.417235460994505, -1.3146886362046844e-06, 68.00160864786207, 4.620014668611989e-06, 1.3146887128486563e-06, -0.6661304507125898, -4.6200147252445975e-06, 0.05021774847136661, -1.9983913521379177, -2.30333205887142, 0.050220377848720923, -0.6661304507125898, -2.303322818842218, 0.05021906315999479, 3.311284323120632e-14, -2.1730303370479148e-14, 0.05021906315999481, -1.3322609014252127, -2.1730303370479148e-14, 2.6904185125355136e-14, 3.311284323120632e-14, -2.3033274388567633, 2.6904185125355136e-14, -1.3322609014252127, -2.303327438856763, 0.07533006030543075, -0.6661079855955249, -3.4549879779210553, 0.0753300603054309, -0.6661529158297543, -3.4549879779210553, 0.025108066014901634, -1.9984138172548485, -1.1516668997925505, 0.02510806601490169, -1.9983688870206868, -1.1516668997925497, 0.07532712917472464, -1.9984138172548482, -1.1516605390643628, 0.07532712917472469, -1.9983688870206875, -1.1516605390643633, 0.025110997145258076, -0.6661079855955243, -3.454994338649434, 0.0251109971452582, -0.6661529158297542, -3.454994338649434, 0.05023356538760726, -1.9983913521379175, -3.4550055773699597, 0.05020456093244125, -0.6661304507125897, -1.1516493003437926, 1.450222762645318e-05, -1.9983913521379177, -3.4549767392006054, -1.4502227554274803e-05, -0.6661304507125898, -1.1516781385130848, -0.00025902515960068333, -2.4730184552157573e-33, 0.0, 1.3692989785001715e-36, -0.0003001553483087182, 0.0, 0.0, 0.0, -0.0002092476386068904, -0.2124298108464838, 4.620014668611989e-06, 53.34894730515062, 0.21242981084645907, 1.5399995734372995e-06, 16.651052694849355, -0.21242992694708582, 4.620014668591011e-06, 16.65105801983139, 0.21242969475066104, 1.5399995734372989e-06, -16.651047369859562, -1.1609865119232015e-07, -7.65524968181997e-20, 5.023757584130837e-20, -1.1609865119165263e-07, 3.079999146873784e-06, 5.023757584130837e-20, -6.219890363152819e-20, -7.65524968181997e-20, 5.324982875569044e-06, -6.219890363152819e-20, 3.079999146873784e-06, 5.324982875569645e-06, -0.0793330215826547, 0.13584841068340162, -0.007709657364539488, -0.07933302158265382, -0.13584533067389631, -0.007709657364539925, 0.07933278936813722, -0.1358422506689172, 0.007720307351845036, 0.0793327893681371, 0.13585149069222482, 0.007720307351844318, 0.07933267327552769, -0.13584225066891473, -0.007714982357636522, 0.07933267327552679, 0.1358514906922254, -0.0077149823576365874, -0.07933290547296422, 0.13584841068340092, 0.007725632339304902, -0.07933290547296307, -0.13584533067389734, 0.007725632339305165, 0.013713376056047388, 4.620014668611988e-06, 0.255470940068646, -0.01371360824697803, 1.5399995734411474e-06, -0.25546029008962984, 0.013713492149877708, 4.6200146685910105e-06, -0.2554549651028704, -0.01371349214987877, 1.5399995734372993e-06, 0.2554656150814621, -1.8417066490584906, 2.990402972822397e-33, 0.0, -1.554753237475625e-34, -1.4507327908499414, 0.0, 0.0, 0.0, 2.61480252998603, 16.607937526900063, 1.3146887128486563e-06, 0.21242981084645907, 53.39206247310003, 4.3822051057750745e-07, -0.21242981084645512, 16.60793749386074, 1.314688712909474e-06, -0.21242829555744966, -16.607937559934296, 4.3822051057750956e-07, 0.2124313261423189, -3.3037560333236155e-08, -2.178408071723689e-20, 1.4295803561412708e-20, -3.303756033525117e-08, 8.764410211529524e-07, 1.4295803561412708e-20, -1.7699565577846986e-20, -2.178408071723689e-20, 1.5152886286133232e-06, -1.7699565577846986e-20, 8.764410211529524e-07, 1.5152886285994246e-06, -0.2841384629010505, 0.2307400405586327, -0.05044977310972934, -0.2841384629010513, -0.230739164098194, -0.050449773109728833, 0.28413839680265884, -0.2307382876384846, 0.05045280371880204, 0.28413839680265923, 0.23074091701434696, 0.0504528037188032, 0.2841383637742787, -0.2307382876384831, -0.05045128841409869, 0.28413836377427887, 0.23074091701434496, -0.05045128841409853, -0.2841384298466869, 0.23074004055863215, 0.05045431901627222, -0.2841384298466878, -0.2307391640981949, 0.050454319016270566, 0.2467673539864225, 1.314688712848658e-06, -0.0030097346474917477, -0.24676742005122743, 4.3822051056828035e-07, 0.003012765241269616, 0.24676738701580142, 1.314688712909475e-06, 0.003014280535520407, -0.246767387015802, 4.3822051057750814e-07, -0.0030112499433106246, 7.6310173602617795, -1.786910245717488e-33, 0.0, -1.4488773753972342e-33, -1.1311938514172684, 0.0, 0.0, 0.0, -2.41723546099467, -4.38220485029535e-07, -0.6661304507125898, 1.5399995734372995e-06, 4.3822051057750745e-07, 69.77795651642916, -1.5399995923147543e-06, 0.016739249499514674, -0.6661304507125899, -0.767777352951767, 0.01674012594051203, -0.22204348357084688, -0.7677742729526654, 0.016739687719997027, 1.103761441040129e-14, -7.243434456825847e-15, 0.01673968771999703, -0.4440869671417048, -7.243434456825847e-15, 8.96806170845105e-15, 1.103761441040129e-14, -0.7677758129521975, 8.96806170845105e-15, -0.4440869671417048, -0.7677758129521974, 0.0251100201042541, -0.2220359951908549, -1.1516626593058852, 0.02511002010425414, -0.22205097195087203, -1.1516626593058852, 0.008369355335854223, -0.6661379390925374, -0.3838889665985365, 0.00836935533585424, -0.6661229623325426, -0.3838889665985362, 0.025109043055793985, -0.6661379390925373, -0.3838868463537112, 0.025109043055794, -0.6661229623325428, -0.3838868463537113, 0.008370332384197779, -0.22203599519085468, -1.1516647795507744, 0.00837033238419782, -0.222050971950872, -1.1516647795507744, 0.016744521787208574, -0.6661304507125898, -1.1516685257805082, 0.016734853652805134, -0.22204348357084683, -0.38388310012396226, 4.834067216207539e-06, -0.6661304507125899, -1.151658913076177, -4.834067192150394e-06, -0.22204348357084688, -0.38389271282827353, -8.63418774005678e-05, -8.243394850353154e-34, 0.0, 4.564330117529697e-37, -0.00010005165976326412, 0.0, 0.0, 0.0, -6.974927564122636e-05, 0.21242981084647827, -4.6200147252445975e-06, 16.651052694849355, -0.21242981084645512, -1.5399995923147543e-06, 53.348947305150645, 0.21242992694708196, -4.620014725224433e-06, -16.651058019831463, -0.2124296947506553, -1.5399995923147537e-06, 16.651047369859494, 1.1609865261545779e-07, 7.655249775658617e-20, -5.023757645711613e-20, 1.1609865261478858e-07, -3.0799991846282606e-06, -5.023757645711613e-20, 6.219890439397321e-20, 7.655249775658617e-20, -5.324982940841661e-06, 6.219890439397321e-20, -3.0799991846282606e-06, -5.3249829408422635e-06, 0.07933302158266159, -0.1358484106834183, 0.0077096573644444225, 0.07933302158266026, 0.13584533067387572, 0.007709657364445318, -0.07933278936814095, 0.13584225066885847, -0.007720307351880227, -0.07933278936814203, -0.13585149069227948, -0.007720307351879925, -0.07933267327552973, 0.13584225066885694, 0.007714982357607266, -0.07933267327552905, -0.13585149069227978, 0.0077149823576076505, 0.07933290547296948, -0.13584841068341813, -0.007725632339406985, 0.07933290547296871, 0.13584533067387622, -0.007725632339407636, -0.013713376056021291, -4.6200147252445975e-06, -0.25547094006874194, 0.013713608246953599, -1.5399995923183854e-06, 0.2554602900895952, -0.013713492149853047, -4.620014725224432e-06, 0.2554549651027714, 0.01371349214985356, -1.5399995923147541e-06, -0.25546561508149274, 1.841706649058346, -2.9904029728207026e-33, 0.0, 1.554753237475686e-34, 1.4507327908499887, 0.0, 0.0, 0.0, -2.6148025299860276, -16.607937493860828, 0.05021774847136661, -0.21242992694708582, 16.60793749386074, 0.016739249499514674, 0.21242992694708196, 53.390800546975605, 0.05021774847136656, 0.2703104406242963, 16.606675534692187, 0.016739249499514674, -0.15454941327672136, -0.0012619591653051185, -8.320954905756017e-16, 5.460626656896478e-16, -0.0012619591653051164, 0.03347849899903018, 5.460626656896478e-16, -6.760775860926814e-16, -8.320954905756017e-16, 0.057880513677592074, -6.760775860926814e-16, 0.03347849899903018, 0.05788051367759208, 0.2822454377681931, -0.21400091737797058, 0.1372727366375797, 0.28224543776819455, 0.24747941635758386, 0.13727273663757916, -0.28476935607554094, 0.28095791533792075, -0.021511709314207667, -0.2847693560755416, -0.18052241839363242, -0.0215117093142098, -0.286031315250022, 0.2809579153379198, 0.07939222297573112, -0.2860313152500224, -0.18052241839363134, 0.07939222297572963, 0.2835073969166992, -0.21400091737796947, 0.03636880435454394, 0.28350739691670046, 0.2474794163575846, 0.036368804354545814, -0.2480297106308618, 0.05021774847136661, 0.08983314044887289, 0.2455057922899322, 0.016739249499514677, 0.025927886889794582, -0.246767751457373, 0.05021774847136656, 0.08380840056176586, 0.24676775145737226, 0.016739249499514674, 0.03195262677846827, -7.6310108510991945, 1.8490565665037317e-33, 0.0, 1.4488429652611271e-33, 1.131201394264104, 0.0, 0.0, 0.0, 2.4172407193262546, -1.3146886362655022e-06, -1.9983913521379177, 4.620014668591011e-06, 1.314688712909474e-06, -0.6661304507125899, -4.620014725224433e-06, 0.05021774847136656, 68.00160864786207, -2.30333205887142, 0.050220377848721, -0.6661304507125899, -2.303322818842218, 0.050219063159994796, 3.3112843231206324e-14, -2.1730303370479148e-14, 0.05021906315999482, -1.332260901425213, -2.1730303370479148e-14, 2.690418512535514e-14, 3.3112843231206324e-14, -2.3033274388567633, 2.690418512535514e-14, -1.332260901425213, -2.303327438856763, 0.07533006030543078, -0.6661079855955249, -3.454987977921056, 0.0753300603054309, -0.6661529158297544, -3.454987977921056, 0.025108066014901623, -1.9984138172548487, -1.1516668997925505, 0.02510806601490168, -1.998368887020687, -1.1516668997925499, 0.07532712917472466, -1.9984138172548485, -1.1516605390643633, 0.07532712917472467, -1.9983688870206875, -1.1516605390643635, 0.0251109971452581, -0.6661079855955244, -3.454994338649435, 0.025110997145258218, -0.6661529158297543, -3.454994338649435, 0.050233565387607204, -1.9983913521379177, -3.4550055773699606, 0.05020456093244131, -0.6661304507125898, -1.1516493003437929, 1.4502227626409723e-05, -1.998391352137918, -3.454976739200606, -1.4502227554217688e-05, -0.6661304507125899, -1.1516781385130848, -0.0002590251596014059, -2.473018455215757e-33, 0.0, 1.3692989785001306e-36, -0.00030015534830944116, 0.0, 0.0, 0.0, -0.00020924763860867663, 0.21242829555756207, -2.30333205887142, 16.65105801983139, -0.21242829555744966, -0.767777352951767, -16.651058019831463, 0.2703104406242963, -2.30333205887142, 50.694142695577675, -0.15454615049551257, -0.767777352951767, 13.99625873523255, 0.057882145064773995, 3.816563422037041e-14, -2.5046197457117885e-14, 0.05788214506477401, -1.5355547059035721, -2.5046197457117885e-14, 3.1009577804050926e-14, 3.816563422037041e-14, -2.654799284591787, 3.1009577804050926e-14, -1.5355547059035721, -2.6547992845917867, 0.16615775423155832, -0.9035983305400623, -3.9744776163893403, 0.16615775423155832, -0.6319563753739446, -3.974477616389339, -0.05039346408440144, -2.167511081283212, -1.335120952815879, -0.05039346408440112, -2.439153036453254, -1.3351209528158776, 0.007488680974133974, -2.167511081283212, -1.3196783317874135, 0.007488680974135464, -2.4391530364532525, -1.3196783317874128, 0.10827560915554005, -0.9035983305400623, -3.9899202374123925, 0.10827560915553944, -0.6319563753739443, -3.9899202374123917, 0.04418536803746524, -2.30333205887142, -4.2376784987760265, 0.07157892208577854, -0.7677773529517669, -1.0719200704210732, -0.013696777022472684, -2.30333205887142, -3.7267193550168023, 0.013696777022555687, -0.767777352951767, -1.5828792141798023, 1.8414080988714543, -5.840781232273357e-33, 0.0, 1.5705356512213484e-34, 1.4503868347067805, 0.0, 0.0, 0.0, -2.615043706942336, 16.60793755993437, 0.050220377848720923, 0.21242969475066104, -16.607937559934296, 0.01674012594051203, -0.2124296947506553, 16.606675534692187, 0.050220377848721, -0.15454615049551257, 53.39080041482855, 0.01674012594051203, 0.2703132390126619, -0.001262025240423991, -8.321390587358535e-16, 5.460912572959945e-16, -0.0012620252404239936, 0.0334802518810249, 5.460912572959945e-16, -6.761129852228758e-16, -8.321390587358535e-16, 0.05788354425476702, -6.761129852228758e-16, 0.0334802518810249, 0.057883544254767015, -0.28603148803589495, 0.247479163734813, 0.03637319041753045, -0.2860314880358956, -0.21399891183436934, 0.036373190417531426, 0.28350743753176766, -0.18051865993465763, 0.07939389812382183, 0.28350743753176766, 0.2809594156305283, 0.07939389812382211, 0.2822454123005285, -0.18051865993465613, -0.02151035385297544, 0.28224541230052846, 0.28095941563052745, -0.021510353852975228, -0.2847694627786632, 0.24747916373481277, 0.13727744238743325, -0.28476946277866466, -0.21399891183436953, 0.13727744238743267, 0.2455049973539338, 0.050220377848720923, 0.083813671147982, -0.24802904782446625, 0.016740125940512017, 0.031953417378079406, 0.24676702258617558, 0.050220377848721, 0.08983696163846945, -0.24676702258617528, 0.01674012594051203, 0.025930126886020068, 7.631023869509215, -1.724763925076778e-33, 0.0, -1.4489117855400034e-33, -1.1311863086612006, 0.0, 0.0, 0.0, -2.4172302026240695, -4.382204850295371e-07, -0.6661304507125898, 1.5399995734372989e-06, 4.3822051057750956e-07, -0.22204348357084688, -1.5399995923147537e-06, 0.016739249499514674, -0.6661304507125899, -0.767777352951767, 0.01674012594051203, 69.77795651642916, -0.7677742729526654, 0.016739687719997027, 1.103761441040129e-14, -7.243434456825847e-15, 0.01673968771999703, -0.4440869671417048, -7.243434456825847e-15, 8.96806170845105e-15, 1.103761441040129e-14, -0.7677758129521975, 8.96806170845105e-15, -0.4440869671417048, -0.7677758129521974, 0.0251100201042541, -0.2220359951908549, -1.1516626593058852, 0.02511002010425414, -0.22205097195087203, -1.1516626593058852, 0.008369355335854223, -0.6661379390925374, -0.3838889665985365, 0.00836935533585424, -0.6661229623325426, -0.3838889665985362, 0.025109043055793985, -0.6661379390925373, -0.3838868463537112, 0.025109043055794, -0.6661229623325428, -0.3838868463537113, 0.008370332384197779, -0.22203599519085468, -1.1516647795507744, 0.00837033238419782, -0.222050971950872, -1.1516647795507744, 0.016744521787208574, -0.6661304507125898, -1.1516685257805082, 0.016734853652805134, -0.22204348357084683, -0.38388310012396226, 4.834067216207537e-06, -0.6661304507125899, -1.151658913076177, -4.834067192150392e-06, -0.22204348357084688, -0.38389271282827353, -8.634187740056779e-05, -8.243394850353154e-34, 0.0, 4.564330117529697e-37, -0.00010005165976326413, 0.0, 0.0, 0.0, -6.974927564122636e-05, -0.21243132614225468, -2.303322818842218, -16.651047369859562, 0.2124313261423189, -0.7677742729526654, 16.651047369859494, -0.15454941327672136, -2.303322818842218, 13.99625873523255, 0.2703132390126619, -0.7677742729526654, 50.694163995521016, 0.05788191286747502, 3.816548111537902e-14, -2.5046096981967678e-14, 0.057881912867475044, -1.535548545905369, -2.5046096981967678e-14, 3.1009453406245484e-14, 3.816548111537902e-14, -2.654788634626193, 3.1009453406245484e-14, -1.535548545905369, -2.654788634626192, 0.007491711063341019, -0.6319015091806967, -3.9898969311203722, 0.007491711063342043, -0.9036470367143904, -3.9898969311203736, 0.10827211465478909, -2.4391955826137894, -1.3196803381105482, 0.10827211465478828, -2.16745005507633, -1.3196803381105489, 0.16615402752810773, -2.439195582613789, -1.3351082965044845, 0.1661540275281063, -2.1674500550763325, -1.3351082965044843, -0.05039020179329858, -0.6319015091806968, -3.974468972732296, -0.05039020179329817, -0.9036470367143898, -3.9744689727322937, 0.07161212015991858, -2.303322818842218, -3.726736618647513, 0.0441517055814739, -0.7677742729526653, -1.5828406505918675, 0.013730207287640059, -2.303322818842218, -4.237629285214234, -0.013730207287556528, -0.7677742729526654, -1.0719479840255002, -1.8420051991122204, 1.4002471325401818e-34, 0.0, -1.5389708239220572e-34, -1.4510787471294164, 0.0, 0.0, 0.0, 2.6145613530942176, 3.3037558407208964e-08, 0.05021906315999479, -1.1609865119232015e-07, -3.3037560333236155e-08, 0.016739687719997027, 1.1609865261545779e-07, -0.0012619591653051185, 0.050219063159994796, 0.057882145064773995, -0.001262025240423991, 0.016739687719997027, 0.05788191286747502, 69.99873800779714, -8.321172746549159e-16, 5.460769614922888e-16, -0.001261992202863324, 0.03347937543999488, 5.460769614922888e-16, -6.760952856571192e-16, -8.321172746549159e-16, 0.0578820289661231, -6.760952856571192e-16, 0.03347937543999488, 0.057882028966123086, -0.001893025133881388, 0.01673912317777874, 0.08682296352699753, -0.0018930251338813914, 0.016740252262217807, 0.08682296352699753, -0.000630959271853874, 0.05021962770220972, 0.02894109440525065, -0.0006309592718538754, 0.05021849861777235, 0.028941094405250636, -0.0018929514747128807, 0.0502196277022097, 0.028940934560876215, -0.0018929514747128816, 0.05021849861777237, 0.028940934560876215, -0.0006310329310135938, 0.016739123177778727, 0.08682312337137679, -0.0006310329310135972, 0.016740252262217807, 0.08682312337137679, -0.0012623566409725318, 0.05021906315999479, 0.08682340579785087, -0.0012616277647555963, 0.016739687719997023, 0.028940652134400974, -3.6443810955939794e-07, 0.050219063159994796, 0.08682268110052534, 3.6443810774596817e-07, 0.016739687719997027, 0.028941376831725, 6.509227844160132e-06, 6.214632084765117e-35, 0.0, -3.4410139193197367e-38, 7.54281160805917e-06, 0.0, 0.0, 0.0, 5.258351356721807e-06, 2.178407944731899e-20, 3.311284323120632e-14, -7.65524968181997e-20, -2.178408071723689e-20, 1.103761441040129e-14, 7.655249775658617e-20, -8.320954905756017e-16, 3.3112843231206324e-14, 3.816563422037041e-14, -8.321390587358535e-16, 1.103761441040129e-14, 3.816548111537902e-14, -8.321172746549159e-16, 70.0, 3.6006567387485918e-28, -8.321172746549161e-16, 2.207522882080313e-14, 3.6006567387485918e-28, -4.4579559622601615e-28, -5.486715030474044e-28, 3.816555766787378e-14, -4.4579559622601615e-28, 2.207522882080313e-14, 3.816555766787377e-14, -1.2482001960383814e-15, 1.1037242169034479e-14, 5.724828380397175e-14, -1.2482001960383831e-15, 1.1037986651769747e-14, 5.724828380397175e-14, -4.1603435327713067e-16, 3.3113215472570905e-14, 1.908283153177712e-14, -4.160343532771315e-16, 3.311247098983676e-14, 1.9082831531777104e-14, -1.2481516279292004e-15, 3.311321547257089e-14, 1.9082726136099147e-14, -1.2481516279292008e-15, 3.311247098983677e-14, 1.9082726136099153e-14, -4.1608292138051784e-16, 1.1037242169034471e-14, 5.724838919965291e-14, -4.160829213805199e-16, 1.1037986651769745e-14, 5.724838919965291e-14, -8.323575729778883e-16, 3.311284323120632e-14, 5.72485754224123e-14, -8.318769763329197e-16, 1.1037614410401289e-14, 1.908253991333901e-14, -2.402983232044394e-19, 3.3112843231206324e-14, 5.724809758121363e-14, 2.4029832200832903e-19, 1.103761441040129e-14, 1.9083017754536676e-14, 4.291982212391771e-18, 4.0977295224551956e-47, 0.0, -2.268894024094589e-50, 4.973498883629744e-18, 0.0, 0.0, 0.0, 3.4671807116515274e-18, -1.4295802728049114e-20, -2.1730303370479148e-14, 5.023757584130837e-20, 1.4295803561412708e-20, -7.243434456825847e-15, -5.023757645711613e-20, 5.460626656896478e-16, -2.1730303370479148e-14, -2.5046197457117885e-14, 5.460912572959945e-16, -7.243434456825847e-15, -2.5046096981967678e-14, 5.460769614922888e-16, 3.6006567387485918e-28, 70.0, 5.460769614922889e-16, -1.4486868913652054e-14, -2.3629309848037637e-28, 2.9255336002332317e-28, 3.6006567387485918e-28, -2.504614721954217e-14, 2.9255336002332317e-28, -1.4486868913652054e-14, -2.5046147219542168e-14, 8.191313786502617e-16, -7.243190173429045e-15, -3.756918624635641e-14, 8.19131378650263e-16, -7.24367874022373e-15, -3.756918624635641e-14, 2.730225443380431e-16, -2.173054765387449e-14, -1.2523108192728801e-14, 2.7302254433804367e-16, -2.1730059087080545e-14, -1.2523108192728793e-14, 8.190995058284637e-16, -2.1730547653874487e-14, -1.2523039026815004e-14, 8.190995058284639e-16, -2.173005908708055e-14, -1.2523039026815007e-14, 2.7305441715603876e-16, -7.243190173429039e-15, -3.7569255412272296e-14, 2.7305441715604024e-16, -7.24367874022373e-15, -3.7569255412272296e-14, 5.462346572662031e-16, -2.1730303370479148e-14, -3.756937762095828e-14, 5.459192657190149e-16, -7.243434456825846e-15, -1.2522916818128522e-14, 1.576957740665126e-19, -2.1730303370479148e-14, -3.7569064037671234e-14, -1.5769577328189183e-19, -7.243434456825847e-15, -1.2523230401414897e-14, -2.8166133246750476e-18, -2.6891349991128543e-47, 0.0, 1.488961703355762e-50, -3.2638586451043486e-18, 0.0, 0.0, 0.0, -2.2753373419219076e-18, 3.303755840944082e-08, 0.05021906315999481, -1.1609865119165263e-07, -3.303756033525117e-08, 0.01673968771999703, 1.1609865261478858e-07, -0.0012619591653051164, 0.05021906315999482, 0.05788214506477401, -0.0012620252404239936, 0.01673968771999703, 0.057881912867475044, -0.001261992202863324, -8.321172746549161e-16, 5.460769614922889e-16, 69.99873800779714, 0.03347937543999489, 5.460769614922889e-16, -6.760952856571194e-16, -8.321172746549161e-16, 0.05788202896612312, -6.760952856571194e-16, 0.03347937543999489, 0.05788202896612311, -0.0018930251338813888, 0.016739123177778748, 0.08682296352699756, -0.001893025133881392, 0.016740252262217814, 0.08682296352699756, -0.0006309592718538738, 0.050219627702209724, 0.02894109440525066, -0.0006309592718538752, 0.05021849861777236, 0.028941094405250643, -0.0018929514747128811, 0.05021962770220972, 0.028940934560876222, -0.0018929514747128818, 0.05021849861777238, 0.028940934560876225, -0.0006310329310135941, 0.016739123177778734, 0.08682312337137682, -0.0006310329310135976, 0.016740252262217814, 0.08682312337137682, -0.0012623566409725301, 0.05021906315999481, 0.0868234057978509, -0.0012616277647555987, 0.016739687719997027, 0.028940652134400984, -3.6443810955760155e-07, 0.05021906315999482, 0.08682268110052535, 3.644381077441717e-07, 0.01673968771999703, 0.028941376831725006, 6.509227844159515e-06, 6.214632084765118e-35, 0.0, -3.4410139193195885e-38, 7.54281160806568e-06, 0.0, 0.0, 0.0, 5.258351356736219e-06, -8.76440970063838e-07, -1.3322609014252127, 3.079999146873784e-06, 8.764410211529524e-07, -0.4440869671417048, -3.0799991846282606e-06, 0.03347849899903018, -1.332260901425213, -1.5355547059035721, 0.0334802518810249, -0.4440869671417048, -1.535548545905369, 0.03347937543999488, 2.207522882080313e-14, -1.4486868913652054e-14, 0.03347937543999489, 69.11182606571656, -1.4486868913652054e-14, 1.7936123416902548e-14, 2.207522882080313e-14, -1.5355516259044333, 1.7936123416902548e-14, -0.8881739342834316, -1.5355516259044328, 0.05022004020850944, -0.44407199038172085, -2.3033253186118277, 0.05022004020850953, -0.4441019439017551, -2.3033253186118277, 0.016738710671708863, -1.3322758781851078, -0.7677779331970921, 0.0167387106717089, -1.3322459246651182, -0.7677779331970915, 0.050218086111589226, -1.3322758781851076, -0.7677736927074416, 0.05021808611158924, -1.3322459246651188, -0.7677736927074417, 0.016740664768395967, -0.44407199038172046, -2.3033295591016065, 0.016740664768396057, -0.44410194390175506, -2.3033295591016065, 0.03348904357441797, -1.3322609014252127, -2.3033370515610736, 0.03346970730561108, -0.4440869671417047, -0.7677662002479437, 9.668134432404878e-06, -1.332260901425213, -2.303317826152411, -9.668134384290696e-06, -0.4440869671417048, -0.767785425656566, -0.00017268375480137743, -1.648678970070671e-33, 0.0, 9.128660235059476e-37, -0.0002001033195260623, 0.0, 0.0, 0.0, -0.00013949855128271056, -1.4295802728049114e-20, -2.1730303370479148e-14, 5.023757584130837e-20, 1.4295803561412708e-20, -7.243434456825847e-15, -5.023757645711613e-20, 5.460626656896478e-16, -2.1730303370479148e-14, -2.5046197457117885e-14, 5.460912572959945e-16, -7.243434456825847e-15, -2.5046096981967678e-14, 5.460769614922888e-16, 3.6006567387485918e-28, -2.3629309848037637e-28, 5.460769614922889e-16, -1.4486868913652054e-14, 70.0, 2.9255336002332317e-28, 3.6006567387485918e-28, -2.504614721954217e-14, 2.9255336002332317e-28, -1.4486868913652054e-14, -2.5046147219542168e-14, 8.191313786502617e-16, -7.243190173429045e-15, -3.756918624635641e-14, 8.19131378650263e-16, -7.24367874022373e-15, -3.756918624635641e-14, 2.730225443380431e-16, -2.173054765387449e-14, -1.2523108192728801e-14, 2.7302254433804367e-16, -2.1730059087080545e-14, -1.2523108192728793e-14, 8.190995058284637e-16, -2.1730547653874487e-14, -1.2523039026815004e-14, 8.190995058284639e-16, -2.173005908708055e-14, -1.2523039026815007e-14, 2.7305441715603876e-16, -7.243190173429039e-15, -3.7569255412272296e-14, 2.7305441715604024e-16, -7.24367874022373e-15, -3.7569255412272296e-14, 5.462346572662031e-16, -2.1730303370479148e-14, -3.756937762095828e-14, 5.459192657190149e-16, -7.243434456825846e-15, -1.2522916818128522e-14, 1.576957740665126e-19, -2.1730303370479148e-14, -3.7569064037671234e-14, -1.5769577328189183e-19, -7.243434456825847e-15, -1.2523230401414897e-14, -2.8166133246750476e-18, -2.6891349991128543e-47, 0.0, 1.488961703355762e-50, -3.2638586451043486e-18, 0.0, 0.0, 0.0, -2.2753373419219076e-18, 1.769956454607567e-20, 2.6904185125355136e-14, -6.219890363152819e-20, -1.7699565577846986e-20, 8.96806170845105e-15, 6.219890439397321e-20, -6.760775860926814e-16, 2.690418512535514e-14, 3.1009577804050926e-14, -6.761129852228758e-16, 8.96806170845105e-15, 3.1009453406245484e-14, -6.760952856571192e-16, -4.4579559622601615e-28, 2.9255336002332317e-28, -6.760952856571194e-16, 1.7936123416902548e-14, 2.9255336002332317e-28, 70.0, -4.4579559622601615e-28, 3.1009515605147454e-14, -3.622089219336382e-28, 1.7936123416902548e-14, 3.100951560514745e-14, -1.0141626592811886e-15, 8.967759262340528e-15, 4.651423059072706e-14, -1.0141626592811902e-15, 8.968364154562908e-15, 4.651423059072706e-14, -3.3802791203766516e-16, 2.6904487571463857e-14, 1.5504800619568923e-14, -3.3802791203766595e-16, 2.6903882679242387e-14, 1.5504800619568913e-14, -1.0141231976924716e-15, 2.690448757146385e-14, 1.5504714985580547e-14, -1.014123197692472e-15, 2.690388267924239e-14, 1.550471498558055e-14, -3.380673736216744e-16, 8.967759262340522e-15, 4.651431622471801e-14, -3.3806737362167616e-16, 8.968364154562907e-15, 4.651431622471801e-14, -6.762905280445497e-16, 2.6904185125355136e-14, 4.651446753071002e-14, -6.759000432704821e-16, 8.968061708451048e-15, 1.5504563679587933e-14, -1.9524238761860252e-19, 2.690418512535514e-14, 4.651407928473605e-14, 1.952423866471234e-19, 8.96806170845105e-15, 1.550495192556107e-14, 3.487235548722419e-18, 3.3294052369981736e-47, 0.0, -1.8434763947454147e-50, 4.040967844012658e-18, 0.0, 0.0, 0.0, 2.8170843295440458e-18, 2.178407944731899e-20, 3.311284323120632e-14, -7.65524968181997e-20, -2.178408071723689e-20, 1.103761441040129e-14, 7.655249775658617e-20, -8.320954905756017e-16, 3.3112843231206324e-14, 3.816563422037041e-14, -8.321390587358535e-16, 1.103761441040129e-14, 3.816548111537902e-14, -8.321172746549159e-16, -5.486715030474044e-28, 3.6006567387485918e-28, -8.321172746549161e-16, 2.207522882080313e-14, 3.6006567387485918e-28, -4.4579559622601615e-28, 70.0, 3.816555766787378e-14, -4.4579559622601615e-28, 2.207522882080313e-14, 3.816555766787377e-14, -1.2482001960383814e-15, 1.1037242169034479e-14, 5.724828380397175e-14, -1.2482001960383831e-15, 1.1037986651769747e-14, 5.724828380397175e-14, -4.1603435327713067e-16, 3.3113215472570905e-14, 1.908283153177712e-14, -4.160343532771315e-16, 3.311247098983676e-14, 1.9082831531777104e-14, -1.2481516279292004e-15, 3.311321547257089e-14, 1.9082726136099147e-14, -1.2481516279292008e-15, 3.311247098983677e-14, 1.9082726136099153e-14, -4.1608292138051784e-16, 1.1037242169034471e-14, 5.724838919965291e-14, -4.160829213805199e-16, 1.1037986651769745e-14, 5.724838919965291e-14, -8.323575729778883e-16, 3.311284323120632e-14, 5.72485754224123e-14, -8.318769763329197e-16, 1.1037614410401289e-14, 1.908253991333901e-14, -2.402983232044394e-19, 3.3112843231206324e-14, 5.724809758121363e-14, 2.4029832200832903e-19, 1.103761441040129e-14, 1.9083017754536676e-14, 4.291982212391771e-18, 4.0977295224551956e-47, 0.0, -2.268894024094589e-50, 4.973498883629744e-18, 0.0, 0.0, 0.0, 3.4671807116515274e-18, -1.5152885402725473e-06, -2.3033274388567633, 5.324982875569044e-06, 1.5152886286133232e-06, -0.7677758129521975, -5.324982940841661e-06, 0.057880513677592074, -2.3033274388567633, -2.654799284591787, 0.05788354425476702, -0.7677758129521975, -2.654788634626193, 0.0578820289661231, 3.816555766787378e-14, -2.504614721954217e-14, 0.05788202896612312, -1.5355516259044333, -2.504614721954217e-14, 3.1009515605147454e-14, 3.816555766787378e-14, 67.34520604039109, 3.1009515605147454e-14, -1.5355516259044333, -2.654793959608925, 0.08682473264859714, -0.7677499198567126, -3.9821872737541937, 0.08682473264859727, -0.7678017060477972