20
Lattice="6.96228016 0.0 0.0 0.0 7.08885146 0.0 0.0 0.0 9.96351872" Properties=species:S:1:pos:R:3:forces:R:3 energy=-94.64288829 stress="-0.000999988384052196 -0.0 -0.0 -0.0 0.0002481510869890731 -0.0 -0.0 -0.0 -0.0005921676285141809" free_energy=-94.64288829 pbc="T T T"
Ba       3.40347111       6.74569696       2.49087968       0.00861235      -0.01726172       0.00000000
Ba       0.07766904       3.20127123       2.49087968      -0.00861235      -0.01726172      -0.00000000
Ba       3.55880912       0.34315450       7.47263904      -0.00861235       0.01726172      -0.00000000
Ba       6.88461119       3.88758023       7.47263904       0.00861235       0.01726172       0.00000000
S        4.93960640       5.59957904       5.30437252       0.00645516       0.00486457      -0.00432599
S        5.50381384       2.05515331       9.64090556      -0.00645516       0.00486457       0.00432599
S        4.93960640       5.59957904       9.64090556       0.00645516       0.00486457       0.00432599
S        5.50381384       2.05515331       5.30437252      -0.00645516       0.00486457      -0.00432599
S        2.02267376       1.48927242       4.65914620      -0.00645516      -0.00486457       0.00432599
S        1.45846632       5.03369815       0.32261316       0.00645516      -0.00486457      -0.00432599
S        3.05426883       3.51609662       7.47263904      -0.01280089       0.00677333       0.00000000
S        3.90801133       3.57275484       2.49087968       0.01280089      -0.00677333      -0.00000000
S        1.45846632       5.03369815       4.65914620       0.00645516      -0.00486457       0.00432599
S        6.53540891       0.02832911       2.49087968      -0.01280089      -0.00677333      -0.00000000
S        0.42687125       7.06052235       7.47263904       0.01280089       0.00677333      -0.00000000
S        2.02267376       1.48927242       0.32261316      -0.00645516      -0.00486457      -0.00432599
Zr       0.00000000       0.00000000       0.00000000      -0.00000000       0.00000000      -0.00000000
Zr       3.48114008       3.54442573       4.98175936      -0.00000000       0.00000000       0.00000000
Zr       0.00000000       0.00000000       4.98175936      -0.00000000       0.00000000      -0.00000000
Zr       3.48114008       3.54442573       0.00000000      -0.00000000       0.00000000      -0.00000000
