80   
7    

1    
 -0.0049181370675208   0.0049181370675208   0.0071849742915445
   0.0119450218   -0.0119511885   -0.0298372512
  -0.0012234400    0.0012208981    0.0020592829
   0.0001339445   -0.0001507241    0.0002040089
  -0.0000102975    0.0000054210   -0.0000607183
  -0.0004434916   -0.0009348131    0.0011213115
  -0.0000076985    0.0015569883   -0.0004211439
  -0.0015647459    0.0000124054   -0.0004007290
   0.0009853606    0.0003931218    0.0011355965
  -0.0017263383    0.0017221293   -0.0010688175
   0.0008089348   -0.0007955277    0.0021725640
   0.0002695315   -0.0002791343    0.0021825067
  -0.0017413599    0.0017404212   -0.0009910645
  -0.0002534600    0.0002613958    0.0004174806
   0.0006931879   -0.0007308911   -0.0010455312
   0.0007346805   -0.0006761358   -0.0010271903
  -0.0001990752    0.0002122682    0.0004366017
   0.0018558707    0.0069066055    0.0034302972
  -0.0087658060   -0.0026242681    0.0029969447
   0.0008500975    0.0007752465    0.0003762636
  -0.0009307516   -0.0006062663    0.0001265543
  -0.0006252076    0.0009628583    0.0010934611
   0.0028334821   -0.0046221760   -0.0041791014
  -0.0007439644    0.0008669245    0.0013370974
   0.0027850894   -0.0016415083   -0.0037546766
   0.0016520554   -0.0027982741   -0.0037543059
  -0.0008560827    0.0007370106    0.0013396079
   0.0046285054   -0.0028463121   -0.0041795631
  -0.0009532804    0.0006135957    0.0010937490
  -0.0069188808   -0.0018477416    0.0034303575
   0.0026200390    0.0087644846    0.0029955100
  -0.0007758562   -0.0008525506    0.0003845122
   0.0006118536    0.0009230097    0.0001323636
  -0.0000696821    0.0002340941   -0.0002034094
  -0.0000022565   -0.0002109563    0.0001078001
   0.0005372908    0.0009035516    0.0039512525
  -0.0000869288   -0.0004526451   -0.0018193748
   0.0005920013    0.0007015354    0.0030033712
  -0.0002352531   -0.0007334739   -0.0022233070
  -0.0002560689    0.0005152287   -0.0006112813
  -0.0000029056   -0.0002099361    0.0001587896
  -0.0007010985   -0.0005917755    0.0030039545
   0.0007342889    0.0002351369   -0.0022231198
  -0.0005146422    0.0002561304   -0.0006106160
   0.0002105685    0.0000027166    0.0001591801
   0.0004531029    0.0000873605   -0.0018189920
  -0.0009024712   -0.0005376805    0.0039515663
   0.0002115548    0.0000025847    0.0001079308
  -0.0002334292    0.0000695600   -0.0002030027
  -0.0002080437    0.0001908534    0.0023411496
   0.0003158644   -0.0003344487   -0.0003504200
  -0.0006402218    0.0006234800    0.0009045071
   0.0002208965   -0.0002377800   -0.0003217679
   0.0013679808    0.0014050746   -0.0002672455
  -0.0011038757   -0.0015777772   -0.0001832904
   0.0015595481    0.0010865980   -0.0001837325
  -0.0014205116   -0.0013846912   -0.0002666981
   0.0016978102   -0.0016803253   -0.0027510947
  -0.0044014513    0.0044191626    0.0088296931
  -0.0001038342    0.0001206590   -0.0001915894
   0.0000459531   -0.0000274377    0.0000824217
  -0.0002277868   -0.0001157191    0.0003645156
   0.0000565206    0.0005782462    0.0002948339
  -0.0005612370   -0.0000394561    0.0002950009
   0.0001338032    0.0002457683    0.0003641203
  -0.0001237012    0.0000824541    0.0004187305
   0.0001118893    0.0001875342   -0.0002572038
  -0.0001841446    0.0041407555    0.0053992184
   0.0018315762   -0.0013832851   -0.0003927802
   0.0015339128   -0.0009257918   -0.0002078068
  -0.0027702218    0.0003944218   -0.0009289802
   0.0000932696    0.0001533901   -0.0001339980
   0.0000251051   -0.0001337213    0.0003843323
  -0.0041572256    0.0002018536    0.0053987251
   0.0013658163   -0.0018135990   -0.0003926104
  -0.0000999419    0.0001413907    0.0004186053
  -0.0002034727   -0.0000948258   -0.0002570104
  -0.0004118081    0.0027879520   -0.0009294551
   0.0009088667   -0.0015165984   -0.0002072296
   0.0001164055   -0.0000066885    0.0003846950
  -0.0001697296   -0.0000761528   -0.0001343565

1    
  0.0049181370675208  -0.0049181370675208  -0.0071849742915445
  -0.0117041730    0.0116933360    0.0296156111
   0.0011978791   -0.0011995553   -0.0020708288
  -0.0001898683    0.0001734614   -0.0001697245
   0.0000271307   -0.0000320152    0.0000943532
   0.0004189886    0.0009494695   -0.0011327872
   0.0000513970   -0.0015815029    0.0004050388
   0.0015727117   -0.0000471843    0.0004246342
  -0.0008995241   -0.0004693350   -0.0011187661
   0.0016536868   -0.0016569327    0.0010618835
  -0.0008078584    0.0008200661   -0.0021882380
  -0.0003139046    0.0003053435   -0.0021776470
   0.0017524142   -0.0017525909    0.0009949535
   0.0002443745   -0.0002332448   -0.0004506180
  -0.0006324065    0.0007025495    0.0010146658
  -0.0006993968    0.0006492302    0.0010319037
   0.0002980170   -0.0002840747   -0.0004327753
  -0.0019086515   -0.0069507354   -0.0034297777
   0.0086850504    0.0025986209   -0.0029877653
  -0.0008578065   -0.0007641190   -0.0003800399
   0.0009155451    0.0006226874   -0.0001378708
   0.0006106929   -0.0009539163   -0.0010947532
  -0.0028618837    0.0046095075    0.0041879017
   0.0007266248   -0.0008516401   -0.0013425747
  -0.0028515979    0.0016441852    0.0037371559
  -0.0016341500    0.0028398547    0.0037366265
   0.0008600306   -0.0007387640   -0.0013385174
  -0.0046030154    0.0028507766    0.0041876584
   0.0009611372   -0.0006228893   -0.0010935065
   0.0069372647    0.0019151840   -0.0034298533
  -0.0025993202   -0.0086872180   -0.0029898404
   0.0007573761    0.0008569576   -0.0003730202
  -0.0006085933   -0.0009244757   -0.0001334563
   0.0000689464   -0.0002372545    0.0002101388
   0.0000050535    0.0002108312   -0.0001099489
  -0.0005796896   -0.0008952824   -0.0039172811
   0.0000945722    0.0004507276    0.0018187222
  -0.0005262749   -0.0007051669   -0.0030259037
   0.0002354255    0.0007298851    0.0022195071
   0.0002576838   -0.0005152379    0.0006077803
   0.0000043793    0.0002082624   -0.0001564134
   0.0007064393    0.0005264489   -0.0030251154
  -0.0007289266   -0.0002354951    0.0022193218
   0.0005159641   -0.0002575015    0.0006082679
  -0.0002073602   -0.0000044402   -0.0001567738
  -0.0004501390   -0.0000940957    0.0018191567
   0.0008952453    0.0005795800   -0.0039169938
  -0.0002098697   -0.0000046331   -0.0001090733
   0.0002378379   -0.0000690593    0.0002105869
   0.0002145384   -0.0002311269   -0.0023457854
  -0.0003105844    0.0002950020    0.0003490438
   0.0006404822   -0.0006585904   -0.0009076979
  -0.0002132118    0.0001964659    0.0003213471
  -0.0013652524   -0.0014478190    0.0002657219
   0.0011047785    0.0015313975    0.0001864219
  -0.0015481408   -0.0011213579    0.0001863959
   0.0014301235    0.0013487735    0.0002667159
  -0.0017176233    0.0017352661    0.0027795897
   0.0041516379   -0.0041342269   -0.0083708050
   0.0001031381   -0.0000849619    0.0001931712
  -0.0000496840    0.0000661015   -0.0000802193
   0.0002211407    0.0001497421   -0.0003625726
  -0.0000605174   -0.0005430989   -0.0002915001
   0.0005613329    0.0000778802   -0.0002912997
  -0.0001323831   -0.0002032391   -0.0003629211
   0.0001239819   -0.0001246476   -0.0004200015
  -0.0001150865   -0.0002235097    0.0002570602
   0.0000919896   -0.0042629716   -0.0055399217
  -0.0018204688    0.0013399533    0.0003938861
  -0.0015368633    0.0008841677    0.0002025986
   0.0027486452   -0.0004253586    0.0009285304
  -0.0000930954   -0.0001940066    0.0001350128
  -0.0000253243    0.0000928260   -0.0003822256
   0.0042455713   -0.0000737073   -0.0055398940
  -0.0013567408    0.0018381583    0.0003939500
   0.0001088692   -0.0001069222   -0.0004203469
   0.0002058970    0.0001337653    0.0002575561
   0.0004082679   -0.0027313804    0.0009282991
  -0.0009005991    0.0015551979    0.0002019192
  -0.0001098308    0.0000415898   -0.0003825818
   0.0001775533    0.0001120329    0.0001345486

17   
 -0.0049181370675208   0.0049181370675208   0.0071849742915445
   0.0028030547    0.0072540884    0.0039162512
  -0.0074260032   -0.0016355628    0.0032244362
   0.0006509621    0.0009204976    0.0001914977
  -0.0007771374   -0.0007279413    0.0003171607
  -0.0007310401    0.0005528953    0.0013062886
   0.0034919191   -0.0033597662   -0.0046797648
  -0.0011480281    0.0006668468    0.0011900886
   0.0030979110   -0.0010649654   -0.0039938786
   0.0030312318   -0.0009710564   -0.0040340358
  -0.0011528471    0.0007003379    0.0011662228
   0.0034666470   -0.0033115057   -0.0046634092
  -0.0007054871    0.0005330302    0.0013179042
  -0.0007962853   -0.0007007873    0.0002889972
   0.0007102634    0.0008928361    0.0001558448
  -0.0074742949   -0.0016781888    0.0032534960
   0.0028796920    0.0071100212    0.0038805977
   0.0514403684   -0.0514501576   -0.0606137180
  -0.0045796280    0.0063395874    0.0077038245
   0.0045871769   -0.0072122520   -0.0078428325
  -0.0031856478    0.0031948762    0.0039625101
  -0.0063718962   -0.0045492691    0.0014240487
   0.0058983251    0.0043447831   -0.0003303108
  -0.0068813137   -0.0033720970   -0.0003383787
   0.0071673697    0.0046265737   -0.0015661858
  -0.0007956297    0.0000027066    0.0246145990
  -0.0201291935    0.0133424986    0.0003722369
  -0.0201798303    0.0133835501    0.0003698687
  -0.0007893730   -0.0000024890    0.0245113442
  -0.0025343061   -0.0043246108    0.0003694154
  -0.0000811599    0.0003236181    0.0003432390
  -0.0000835145    0.0003235377    0.0003464601
  -0.0024788908   -0.0042665622    0.0003695494
   0.0003748637   -0.0001906495   -0.0045771011
   0.0014533300   -0.0005369465    0.0055921857
   0.0027595854   -0.0023365382   -0.0058214131
  -0.0025752801    0.0030460780    0.0119243845
  -0.0007432892   -0.0000816573    0.0011125068
   0.0005801283    0.0003067881    0.0000104156
  -0.0003858516   -0.0006674052    0.0000101242
   0.0010436320    0.0012053567   -0.0013153172
  -0.0025487203    0.0030250610    0.0130260350
   0.0027484386   -0.0023330405   -0.0058200602
   0.0014635140   -0.0005465722    0.0055948803
   0.0003745811   -0.0001906982   -0.0045893188
   0.0010510635    0.0012135943   -0.0013376245
  -0.0003859590   -0.0006669841    0.0000134604
   0.0005792556    0.0003060867    0.0000137613
  -0.0007492506   -0.0000924986    0.0010872132
  -0.0040638778   -0.0042918509   -0.0029525568
   0.0060982290    0.0028796218    0.0004079913
  -0.0019777369   -0.0049513163   -0.0001305854
   0.0038409365    0.0047467114   -0.0025735024
   0.0008914652    0.0003588541   -0.0004005216
  -0.0001992019    0.0004964529    0.0007484688
   0.0006420410   -0.0007203979   -0.0010546207
  -0.0041227959    0.0012518073    0.0030820556
  -0.0043261277    0.0011723844    0.0030943829
   0.0006368647   -0.0006857562   -0.0010562660
  -0.0002033262    0.0005325525    0.0007511736
   0.0008864567    0.0003886384   -0.0004001877
   0.0038496720    0.0047983549   -0.0025937839
  -0.0019866509   -0.0049029663   -0.0001311517
   0.0061004994    0.0029252419    0.0004062275
  -0.0040528217   -0.0042382150   -0.0029265628
  -0.0046369617    0.0038174070   -0.0018389134
   0.0038577221   -0.0031317441   -0.0004000575
  -0.0075909447    0.0155765704    0.0030517883
   0.0043985746   -0.0040848217   -0.0036848582
   0.0015331544   -0.0001331358   -0.0001301480
  -0.0005908788   -0.0003966657    0.0001865554
   0.0006257902    0.0004454056   -0.0004915726
  -0.0018927676   -0.0003668386    0.0004068793
  -0.0019048914   -0.0003127997    0.0004059288
   0.0006311472    0.0004806634   -0.0004912978
  -0.0005853984   -0.0003618003    0.0001860961
   0.0015313387   -0.0000944889   -0.0001286749
   0.0044134323   -0.0040540542   -0.0037005801
  -0.0070030700    0.0147531338    0.0031219113
   0.0038590212   -0.0030932011   -0.0004012615
  -0.0046223493    0.0038512052   -0.0018198554

33   
 -0.0049181370675208   0.0049181370675208   0.0071849742915445
  -0.0003549990    0.0010910766   -0.0009398833
  -0.0000156134   -0.0002362829    0.0001370117
   0.0004231162    0.0014491636    0.0035478446
  -0.0005892289   -0.0013042122   -0.0015866172
   0.0003191905    0.0001184210    0.0034146772
   0.0003051524   -0.0013231562   -0.0014985780
  -0.0000015630    0.0010619645   -0.0008111303
   0.0000447250   -0.0002123967    0.0001458285
   0.0012449325    0.0006240523   -0.0016077224
  -0.0014466684   -0.0003107782    0.0035269929
   0.0002296220    0.0000087476    0.0001447025
  -0.0010409716    0.0002966370   -0.0009271893
  -0.0001239608   -0.0004317631    0.0033872952
   0.0013458364   -0.0002905157   -0.0015067211
  -0.0010622437   -0.0000151566   -0.0008246109
   0.0002244268   -0.0000343346    0.0001419989
   0.0001945936   -0.0003815051   -0.0045931491
  -0.0018690800    0.0029439793    0.0009618898
   0.0046795729   -0.0071622326   -0.0011680529
  -0.0030026784    0.0025348842    0.0129216358
  -0.0055960116   -0.0034100988    0.0000765973
   0.0006538341    0.0003943061    0.0000203003
  -0.0003144208   -0.0005847941    0.0000126936
   0.0045119333    0.0031593799   -0.0002799762
  -0.0026302816    0.0030973822    0.0116635900
   0.0072161133   -0.0047107212   -0.0011466472
  -0.0029119136    0.0018503454    0.0009442221
   0.0003797071   -0.0001960503   -0.0046027290
   0.0034019808    0.0056018633    0.0000708753
  -0.0003848641   -0.0006565710    0.0000136390
   0.0005788430    0.0002977880    0.0000178595
  -0.0031378745   -0.0045200082   -0.0002743957
   0.0115389898   -0.0115373842   -0.0867068534
  -0.0019165364    0.0019142127    0.0043728934
   0.0006456829   -0.0006465194    0.0008844250
  -0.0000736211    0.0000741972    0.0024469166
  -0.0012032349   -0.0013599925    0.0026320957
   0.0000569945    0.0007232601   -0.0005306086
  -0.0007231261   -0.0000560742   -0.0005307115
   0.0013579659    0.0012009640    0.0026246985
  -0.0001163358    0.0001169160    0.0118911155
  -0.0005495154    0.0002841711   -0.0018991230
  -0.0002905957    0.0005535206   -0.0018756332
  -0.0001270205    0.0001240368    0.0119596576
   0.0003356466   -0.0003326755   -0.0020731812
  -0.0000255390    0.0000246297    0.0005330261
  -0.0000940158    0.0000971215    0.0005335611
   0.0000678212   -0.0000734011   -0.0017013660
  -0.0048729732   -0.0081269552    0.0035445578
   0.0000033336    0.0009764519    0.0001758811
   0.0000838755   -0.0001328264   -0.0003492942
   0.0010494579    0.0009468607    0.0005820503
  -0.0081310724   -0.0074743565    0.0049677460
   0.0001614777    0.0010067709    0.0001964633
   0.0001424839   -0.0003700177   -0.0000546558
   0.0009023156    0.0009062197    0.0004640623
  -0.0009641557   -0.0010234518    0.0005815713
   0.0001076967   -0.0000699125   -0.0003479283
  -0.0009894690    0.0000263955    0.0001813660
   0.0081227951    0.0048902252    0.0035130323
   0.0074010534    0.0081210216    0.0049692143
  -0.0010343047   -0.0001478980    0.0001913766
   0.0003498390   -0.0001189206   -0.0000528311
  -0.0009314167   -0.0008849258    0.0004658283
  -0.0111367649    0.0081579565    0.0086153539
  -0.0082588340    0.0112395500    0.0087168191
   0.0006235953   -0.0006462165    0.0003387374
   0.0006307678   -0.0006483486    0.0003366541
   0.0002588649   -0.0004025515   -0.0002707165
  -0.0001363633   -0.0004954057    0.0000660706
   0.0003860414   -0.0002754301   -0.0002684114
   0.0004746691    0.0001128697    0.0000639550
  -0.0006549762   -0.0002007379    0.0000600473
   0.0002231391    0.0006736701    0.0000600231
  -0.0007277384   -0.0001875895    0.0001183166
   0.0002085501    0.0007498748    0.0001145150
   0.0050536697   -0.0040758250   -0.0001397973
  -0.0013450015    0.0012565415    0.0007073862
   0.0040774558   -0.0050031928   -0.0002012061
  -0.0012327786    0.0013637578    0.0007106488

49   
 -0.0049181370675208   0.0049181370675208   0.0071849742915445
  -0.0000180705    0.0000080669    0.0027060082
   0.0003248343   -0.0003272625   -0.0003204529
  -0.0008435327    0.0008274248    0.0007285939
   0.0001121486   -0.0001166189   -0.0004641470
   0.0004661858    0.0003673061   -0.0001426843
  -0.0000831706   -0.0007092897   -0.0001061682
   0.0007009768    0.0000871915   -0.0000862640
  -0.0003154695   -0.0005155549   -0.0001285485
   0.0019993988   -0.0020027503   -0.0027040519
  -0.0046684901    0.0046804418    0.0085937323
  -0.0000079046   -0.0000016959   -0.0000300440
   0.0000373224   -0.0000376824    0.0000593854
  -0.0000735270    0.0001539188    0.0002629949
  -0.0001389862    0.0005180703    0.0001529646
  -0.0005139419    0.0001563813    0.0001699666
  -0.0000910962    0.0000341865    0.0002827455
  -0.0006140026   -0.0005165155   -0.0031574302
   0.0027106396   -0.0004596842    0.0004180981
   0.0007670284   -0.0021732594   -0.0001450630
   0.0004841250    0.0011261619   -0.0023727135
  -0.0001351857   -0.0006320687   -0.0003998084
  -0.0003001038    0.0007393183    0.0005581487
   0.0005238849   -0.0010988125   -0.0008634526
  -0.0067877062   -0.0012275075    0.0031665349
   0.0012365522    0.0067747468    0.0031656016
   0.0011082107   -0.0005364225   -0.0008601660
  -0.0007319022    0.0002906889    0.0005580985
   0.0006385849    0.0001210337   -0.0003988728
   0.0005001109    0.0006209793   -0.0031573710
   0.0004547193   -0.0027114265    0.0004170685
   0.0021661062   -0.0007673038   -0.0001380844
  -0.0011135493   -0.0004902925   -0.0023683192
  -0.0015571825   -0.0038785166    0.0028718182
  -0.0001516071    0.0002826010    0.0005693366
  -0.0000306013   -0.0000887849   -0.0004502298
   0.0000706947    0.0001440255    0.0004807318
  -0.0036096501   -0.0038119667    0.0055782098
  -0.0000268329    0.0007215327    0.0002798272
  -0.0001148697   -0.0000212380   -0.0004500583
   0.0002169120    0.0001147269    0.0005547441
   0.0038123448    0.0036096680    0.0055788085
  -0.0007204945    0.0000268471    0.0002798884
   0.0000219502    0.0001149330   -0.0004494517
  -0.0001137275   -0.0002170505    0.0005546389
  -0.0001434392   -0.0000701512    0.0004813211
   0.0000890934    0.0000307672   -0.0004499368
  -0.0002815862    0.0001519141    0.0005698812
   0.0038790937    0.0015572460    0.0028721070
   0.0158432164   -0.0158610553   -0.0251572301
  -0.0003643478    0.0003487861    0.0005947832
   0.0001139246   -0.0001323202   -0.0000610666
  -0.0000907052    0.0000758061    0.0001328281
  -0.0012125434   -0.0013706986    0.0009805405
   0.0006387952    0.0015770376   -0.0000718801
  -0.0015942469   -0.0006555977   -0.0000718897
   0.0013541400    0.0011958195    0.0009810837
  -0.0000401349    0.0000581203    0.0007933554
  -0.0013049715    0.0013226832   -0.0007398280
  -0.0003483948    0.0003656982   -0.0000038508
   0.0001811674   -0.0001653326    0.0004854693
   0.0005241905    0.0013045185    0.0004118517
  -0.0001912813   -0.0001248510    0.0000625920
   0.0001431991    0.0002085127    0.0000628659
  -0.0012863341   -0.0005051480    0.0004118107
  -0.0019654863    0.0059250443   -0.0011001731
  -0.0007342936   -0.0004728556    0.0010219472
   0.0004508120   -0.0003538590    0.0001300646
  -0.0006967162    0.0004497830    0.0000105596
  -0.0005686813    0.0004656673    0.0003173064
   0.0010333049    0.0029769853   -0.0011158995
  -0.0004683262    0.0002249461    0.0000125309
   0.0004400558   -0.0003584260    0.0001840495
   0.0003378992   -0.0004336078    0.0001297257
  -0.0004655765    0.0007144258    0.0000107137
  -0.0059414721    0.0019834031   -0.0010999474
   0.0004559852    0.0007518414    0.0010223223
  -0.0029945189   -0.0010154547   -0.0011160015
  -0.0004821471    0.0005881936    0.0003170631
   0.0003409762   -0.0004238249    0.0001837593
  -0.0002417756    0.0004874364    0.0000126082

49   
  0.0049181370675208  -0.0049181370675208  -0.0071849742915445
  -0.0000769676    0.0000687596   -0.0026748875
  -0.0003511753    0.0003482523    0.0003168997
   0.0007907596   -0.0008083319   -0.0006803911
  -0.0000930493    0.0000882576    0.0004900751
  -0.0004891502   -0.0003461601    0.0001347494
   0.0001291588    0.0006808239    0.0000858249
  -0.0006893121   -0.0001252334    0.0001058489
   0.0003976477    0.0004402806    0.0001487639
  -0.0020684518    0.0020647041    0.0026769121
   0.0043968935   -0.0043851472   -0.0081242670
  -0.0000307363    0.0000215600    0.0000439834
  -0.0000085686    0.0000073005   -0.0000464306
   0.0000634387   -0.0001329469   -0.0002933610
   0.0002035289   -0.0005399485   -0.0001883327
   0.0005426724   -0.0001866463   -0.0001709930
   0.0001955786   -0.0001041712   -0.0002740520
   0.0006167535    0.0005105724    0.0031596329
  -0.0027152976    0.0004777861   -0.0004081285
  -0.0007733182    0.0021781175    0.0001333627
  -0.0005057113   -0.0010971317    0.0023654499
   0.0001087644    0.0006255258    0.0003969726
   0.0002776639   -0.0007230802   -0.0005528037
  -0.0005437228    0.0011007488    0.0008479873
   0.0066524654    0.0012161908   -0.0031293113
  -0.0012049541   -0.0066647278   -0.0031283329
  -0.0010902091    0.0005367709    0.0008512974
   0.0007285233   -0.0002928287   -0.0005530864
  -0.0006150239   -0.0001172767    0.0003980911
  -0.0005183360   -0.0006088254    0.0031594348
  -0.0004779383    0.0027118580   -0.0004119652
  -0.0021806287    0.0007701935    0.0001412667
   0.0011029537    0.0004948680    0.0023709520
   0.0015586311    0.0038610444   -0.0028899970
   0.0001523539   -0.0002839459   -0.0005639356
   0.0000333957    0.0000860923    0.0004498116
  -0.0000690737   -0.0001463375   -0.0004853227
   0.0036334811    0.0038470244   -0.0055951782
   0.0000305899   -0.0007135319   -0.0002840139
   0.0001167019    0.0000194722    0.0004485737
  -0.0002122049   -0.0001156986   -0.0005485663
  -0.0038459977   -0.0036331486   -0.0055945304
   0.0007142855   -0.0000308108   -0.0002840204
  -0.0000187674   -0.0001165595    0.0004491621
   0.0001164682    0.0002120128   -0.0005483466
   0.0001467169    0.0000694519   -0.0004849092
  -0.0000857434   -0.0000332416    0.0004500877
   0.0002845452   -0.0001519653   -0.0005633402
  -0.0038602532   -0.0015586204   -0.0028896142
  -0.0155407378    0.0155245963    0.0245966722
   0.0003709179   -0.0003885565   -0.0005957111
  -0.0001062370    0.0000907481    0.0000605663
   0.0000986595   -0.0001162380   -0.0001317607
   0.0012199857    0.0013320679   -0.0009842533
  -0.0006297340   -0.0016167134    0.0000699498
   0.0015998267    0.0006130049    0.0000697097
  -0.0013478664   -0.0012372281   -0.0009839492
   0.0000333538   -0.0000172836   -0.0007923046
   0.0012758784   -0.0012586878    0.0007356848
   0.0003455600   -0.0003279048    0.0000069838
  -0.0001830072    0.0002021250   -0.0004868045
  -0.0004948978   -0.0012257714   -0.0004123803
   0.0001868118    0.0001595998   -0.0000621027
  -0.0001425390   -0.0001689849   -0.0000619222
   0.0012427793    0.0005115942   -0.0004127455
   0.0019593121   -0.0060008960    0.0011178537
   0.0007277124    0.0004227979   -0.0010102455
  -0.0004498905    0.0003151231   -0.0001288816
   0.0006893115   -0.0004879711   -0.0000120367
   0.0005648863   -0.0004998143   -0.0003157393
  -0.0010235944   -0.0030360407    0.0011094381
   0.0004727973   -0.0002660939   -0.0000119715
  -0.0004403297    0.0003171034   -0.0001841004
  -0.0003320224    0.0004666172   -0.0001293986
   0.0004697081   -0.0006714147   -0.0000118874
   0.0059833813   -0.0019415013    0.0011174325
  -0.0004382520   -0.0007100306   -0.0010094658
   0.0030190223    0.0010403603    0.0011092146
   0.0004836342   -0.0005488473   -0.0003162867
  -0.0003337754    0.0004591420   -0.0001844679
   0.0002499645   -0.0004562541   -0.0000121128

49   
  0.0049181370675208   0.0049181370675208  -0.0071849742915445
  -0.0002499657    0.0045057851   -0.0056149714
  -0.0001323848    0.0002123355    0.0001297090
   0.0029906431    0.0001578583    0.0010254928
   0.0000142706    0.0000800394    0.0002735378
  -0.0018069796   -0.0002886184    0.0011487317
   0.0001515492   -0.0010068270   -0.0008881227
  -0.0018267556    0.0000745798    0.0007064963
  -0.0000674130   -0.0008306401   -0.0011832622
   0.0001341206    0.0030427336    0.0009729537
   0.0043681329   -0.0000608290   -0.0054384913
   0.0000766732    0.0000161174    0.0002632926
   0.0002115944   -0.0001311051    0.0001399236
   0.0000824040   -0.0018124608    0.0006827004
  -0.0002632137   -0.0018168816    0.0011394302
  -0.0007836948   -0.0001220016   -0.0011846408
  -0.0009387621    0.0000944699   -0.0008792918
   0.0004948786    0.0008994047   -0.0030559849
  -0.0037370123    0.0052646558   -0.0004133593
   0.0026487360   -0.0042783516    0.0001336892
  -0.0006426788   -0.0007273825    0.0085378791
  -0.0041386340   -0.0028444110    0.0004031443
   0.0003542456   -0.0008392170    0.0002776965
  -0.0004724270    0.0010024760    0.0000190592
   0.0132419668    0.0099818711   -0.0030428500
   0.0093545115    0.0122636528   -0.0032483775
  -0.0008355297    0.0003619254    0.0002752099
   0.0009833544   -0.0004615968    0.0000266116
  -0.0028444596   -0.0041403483    0.0003945157
  -0.0007285932   -0.0006108316    0.0085934803
   0.0052767578   -0.0037198358   -0.0004145966
  -0.0042752862    0.0026447796    0.0001435802
   0.0008887417    0.0004744107   -0.0030237440
   0.0046106550    0.0069092054   -0.0139285902
  -0.0001826292    0.0002455537    0.0002087842
  -0.0000569510   -0.0002689764    0.0004829012
   0.0002019468    0.0002037215    0.0007989832
   0.0069945399    0.0046636615   -0.0140779256
  -0.0002669995   -0.0000634288    0.0004802741
   0.0002451999   -0.0001836641    0.0002081738
   0.0002065727    0.0002022352    0.0007943895
  -0.0007363588   -0.0005206358    0.0055517329
   0.0006273331   -0.0003853318   -0.0003139200
  -0.0003540298    0.0004112527   -0.0003264746
   0.0003894037    0.0005645953   -0.0018277373
   0.0005657206    0.0003851916   -0.0018336985
  -0.0003850178    0.0006236350   -0.0003123115
   0.0004130947   -0.0003563374   -0.0003245553
  -0.0005572609   -0.0007677948    0.0055175827
  -0.0623505606   -0.0621916931    0.0248703594
  -0.0001154023   -0.0006179729   -0.0002669181
  -0.0005935961   -0.0001365906   -0.0002681583
   0.0016584356    0.0016348653   -0.0001322914
   0.0028379028    0.0028193387   -0.0027497283
   0.0004035821    0.0026102972    0.0000702249
   0.0026295842    0.0003776162    0.0000712615
   0.0002724339    0.0002465689    0.0007847261
  -0.0010911435   -0.0012927599   -0.0006389228
  -0.0008891119   -0.0008887513    0.0007371071
  -0.0006769549   -0.0006555257    0.0000058867
  -0.0012953671   -0.0010527708   -0.0006407584
   0.0079317644    0.0097336207   -0.0004009681
   0.0005219095    0.0005434062   -0.0002852118
   0.0001922401    0.0002108324    0.0001618983
   0.0097532453    0.0079837365   -0.0004207315
  -0.0055010580    0.0075106236    0.0011003721
   0.0007817420   -0.0003928949   -0.0009363684
  -0.0003953558   -0.0005132369   -0.0002063607
   0.0016167113   -0.0009149584   -0.0000108000
   0.0009367657   -0.0007314866   -0.0008748630
  -0.0025533749    0.0104640039    0.0011232679
   0.0018368018   -0.0006953172   -0.0000123325
  -0.0000771457    0.0000967106    0.0003714452
  -0.0003846505    0.0008054998   -0.0009347745
  -0.0008886388    0.0016288750   -0.0000120593
   0.0075113852   -0.0054956868    0.0011171378
  -0.0004894103   -0.0003812055   -0.0002110828
   0.0104331005   -0.0025112423    0.0011020937
   0.0001150738   -0.0000552409    0.0003730453
  -0.0006981789    0.0009498423   -0.0008719177
  -0.0006767386    0.0018628567   -0.0000116287
