# Thermal properties / unit cell (natom)

unit:
  temperature:   K
  free_energy:   kJ/mol
  entropy:       J/K/mol
  heat_capacity: J/K/mol

natom: 10   
cutoff_frequency: 0.00000
num_modes: 2733750
num_integrated_modes: 2733747

zero_point_energy:      30.0622890

thermal_properties:
- temperature:         0.0000000
  free_energy:        30.0622890
  entropy:             0.0000000
  heat_capacity:       0.0000000
  energy:             30.0622890

- temperature:        10.0000000
  free_energy:        30.0611631
  entropy:             0.6551567
  heat_capacity:       2.9931446
  energy:             30.0677147

- temperature:        20.0000000
  free_energy:        30.0244149
  entropy:             8.0790448
  heat_capacity:      22.2969199
  energy:             30.1859958

- temperature:        30.0000000
  free_energy:        29.8802423
  entropy:            21.3746887
  heat_capacity:      44.7518739
  energy:             30.5214830

- temperature:        40.0000000
  free_energy:        29.5885207
  entropy:            37.2512375
  heat_capacity:      66.4887652
  energy:             31.0785702

- temperature:        50.0000000
  free_energy:        29.1313532
  entropy:            54.3057447
  heat_capacity:      86.8457264
  energy:             31.8466405

- temperature:        60.0000000
  free_energy:        28.5009545
  entropy:            71.8046583
  heat_capacity:     105.3388817
  energy:             32.8092340

- temperature:        70.0000000
  free_energy:        27.6952752
  entropy:            89.3045486
  heat_capacity:     121.7920022
  energy:             33.9465937

- temperature:        80.0000000
  free_energy:        26.7157805
  entropy:           106.5328987
  heat_capacity:     136.2501054
  energy:             35.2384124

- temperature:        90.0000000
  free_energy:        25.5660742
  entropy:           123.3264912
  heat_capacity:     148.8682545
  energy:             36.6654584

- temperature:       100.0000000
  free_energy:        24.2510130
  entropy:           139.5928692
  heat_capacity:     159.8432796
  energy:             38.2102999

- temperature:       110.0000000
  free_energy:        22.7761329
  entropy:           155.2853804
  heat_capacity:     169.3781255
  energy:             39.8575247

- temperature:       120.0000000
  free_energy:        21.1472775
  entropy:           170.3868824
  heat_capacity:     177.6646133
  energy:             41.5937034

- temperature:       130.0000000
  free_energy:        19.3703610
  entropy:           184.8990366
  heat_capacity:     184.8760263
  energy:             43.4072357

- temperature:       140.0000000
  free_energy:        17.4512174
  entropy:           198.8352395
  heat_capacity:     191.1648463
  energy:             45.2881509

- temperature:       150.0000000
  free_energy:        15.3955083
  entropy:           212.2159420
  heat_capacity:     196.6631131
  energy:             47.2278996

- temperature:       160.0000000
  free_energy:        13.2086690
  entropy:           225.0655508
  heat_capacity:     201.4840270
  energy:             49.2191572

- temperature:       170.0000000
  free_energy:        10.8958799
  entropy:           237.4103854
  heat_capacity:     205.7240450
  energy:             51.2556454

- temperature:       180.0000000
  free_energy:         8.4620542
  entropy:           249.2773441
  heat_capacity:     209.4650709
  energy:             53.3319761

- temperature:       190.0000000
  free_energy:         5.9118371
  entropy:           260.6930475
  heat_capacity:     212.7765367
  energy:             55.4435161

- temperature:       200.0000000
  free_energy:         3.2496113
  entropy:           271.6833042
  heat_capacity:     215.7172823
  energy:             57.5862721

- temperature:       210.0000000
  free_energy:         0.4795068
  entropy:           282.2727925
  heat_capacity:     218.3372032
  energy:             59.7567932

- temperature:       220.0000000
  free_energy:        -2.3945867
  entropy:           292.4848884
  heat_capacity:     220.6786670
  energy:             61.9520887

- temperature:       230.0000000
  free_energy:        -5.3690065
  entropy:           302.3415895
  heat_capacity:     222.7777160
  energy:             64.1695591

- temperature:       240.0000000
  free_energy:        -8.4403027
  entropy:           311.8635026
  heat_capacity:     224.6650801
  energy:             66.4069379

- temperature:       250.0000000
  free_energy:       -11.6052249
  entropy:           321.0698717
  heat_capacity:     226.3670251
  energy:             68.6622430

- temperature:       260.0000000
  free_energy:       -14.8607083
  entropy:           329.9786307
  heat_capacity:     227.9060616
  energy:             70.9337357

- temperature:       270.0000000
  free_energy:       -18.2038612
  entropy:           338.6064713
  heat_capacity:     229.3015356
  energy:             73.2198860

- temperature:       280.0000000
  free_energy:       -21.6319532
  entropy:           346.9689175
  heat_capacity:     230.5701216
  energy:             75.5193437

- temperature:       290.0000000
  free_energy:       -25.1424031
  entropy:           355.0804031
  heat_capacity:     231.7262331
  energy:             77.8309138

- temperature:       300.0000000
  free_energy:       -28.7327695
  entropy:           362.9543494
  heat_capacity:     232.7823653
  energy:             80.1535353

- temperature:       310.0000000
  free_energy:       -32.4007400
  entropy:           370.6032394
  heat_capacity:     233.7493822
  energy:             82.4862642

- temperature:       320.0000000
  free_energy:       -36.1441229
  entropy:           378.0386892
  heat_capacity:     234.6367562
  energy:             84.8282576

- temperature:       330.0000000
  free_energy:       -39.9608385
  entropy:           385.2715153
  heat_capacity:     235.4527698
  energy:             87.1787615

- temperature:       340.0000000
  free_energy:       -43.8489115
  entropy:           392.3117969
  heat_capacity:     236.2046853
  energy:             89.5370994

- temperature:       350.0000000
  free_energy:       -47.8064640
  entropy:           399.1689342
  heat_capacity:     236.8988873
  energy:             91.9026630

- temperature:       360.0000000
  free_energy:       -51.8317090
  entropy:           405.8517018
  heat_capacity:     237.5410038
  energy:             94.2749036

- temperature:       370.0000000
  free_energy:       -55.9229442
  entropy:           412.3682980
  heat_capacity:     238.1360087
  energy:             96.6533261

- temperature:       380.0000000
  free_energy:       -60.0785467
  entropy:           418.7263900
  heat_capacity:     238.6883084
  energy:             99.0374815

- temperature:       390.0000000
  free_energy:       -64.2969676
  entropy:           424.9331554
  heat_capacity:     239.2018167
  energy:            101.4269630

- temperature:       400.0000000
  free_energy:       -68.5767278
  entropy:           430.9953201
  heat_capacity:     239.6800174
  energy:            103.8214002

- temperature:       410.0000000
  free_energy:       -72.9164131
  entropy:           436.9191930
  heat_capacity:     240.1260191
  energy:            106.2204560

- temperature:       420.0000000
  free_energy:       -77.3146705
  entropy:           442.7106978
  heat_capacity:     240.5426014
  energy:            108.6238226

- temperature:       430.0000000
  free_energy:       -81.7702044
  entropy:           448.3754018
  heat_capacity:     240.9322555
  energy:            111.0312183

- temperature:       440.0000000
  free_energy:       -86.2817734
  entropy:           453.9185426
  heat_capacity:     241.2972184
  energy:            113.4423854

- temperature:       450.0000000
  free_energy:       -90.8481866
  entropy:           459.3450526
  heat_capacity:     241.6395031
  energy:            115.8570871

- temperature:       460.0000000
  free_energy:       -95.4683012
  entropy:           464.6595806
  heat_capacity:     241.9609243
  energy:            118.2751059

- temperature:       470.0000000
  free_energy:      -100.1410195
  entropy:           469.8665129
  heat_capacity:     242.2631216
  energy:            120.6962415

- temperature:       480.0000000
  free_energy:      -104.8652866
  entropy:           474.9699913
  heat_capacity:     242.5475785
  energy:            123.1203092

- temperature:       490.0000000
  free_energy:      -109.6400876
  entropy:           479.9739307
  heat_capacity:     242.8156401
  energy:            125.5471385

- temperature:       500.0000000
  free_energy:      -114.4644458
  entropy:           484.8820345
  heat_capacity:     243.0685277
  energy:            127.9765715

- temperature:       510.0000000
  free_energy:      -119.3374205
  entropy:           489.6978092
  heat_capacity:     243.3073526
  energy:            130.4084622

- temperature:       520.0000000
  free_energy:      -124.2581053
  entropy:           494.4245776
  heat_capacity:     243.5331270
  energy:            132.8426750

- temperature:       530.0000000
  free_energy:      -129.2256259
  entropy:           499.0654910
  heat_capacity:     243.7467749
  energy:            135.2790843

- temperature:       540.0000000
  free_energy:      -134.2391389
  entropy:           503.6235405
  heat_capacity:     243.9491407
  energy:            137.7175729

- temperature:       550.0000000
  free_energy:      -139.2978300
  entropy:           508.1015674
  heat_capacity:     244.1409973
  energy:            140.1580321

- temperature:       560.0000000
  free_energy:      -144.4009126
  entropy:           512.5022728
  heat_capacity:     244.3230531
  energy:            142.6003602

- temperature:       570.0000000
  free_energy:      -149.5476263
  entropy:           516.8282262
  heat_capacity:     244.4959585
  energy:            145.0444626

- temperature:       580.0000000
  free_energy:      -154.7372361
  entropy:           521.0818741
  heat_capacity:     244.6603111
  energy:            147.4902509

- temperature:       590.0000000
  free_energy:      -159.9690306
  entropy:           525.2655470
  heat_capacity:     244.8166612
  energy:            149.9376422

- temperature:       600.0000000
  free_energy:      -165.2423212
  entropy:           529.3814672
  heat_capacity:     244.9655156
  energy:            152.3865591

- temperature:       610.0000000
  free_energy:      -170.5564411
  entropy:           533.4317544
  heat_capacity:     245.1073423
  energy:            154.8369291

- temperature:       620.0000000
  free_energy:      -175.9107443
  entropy:           537.4184326
  heat_capacity:     245.2425733
  energy:            157.2886840

- temperature:       630.0000000
  free_energy:      -181.3046042
  entropy:           541.3434351
  heat_capacity:     245.3716083
  energy:            159.7417599

- temperature:       640.0000000
  free_energy:      -186.7374135
  entropy:           545.2086098
  heat_capacity:     245.4948175
  energy:            162.1960967

- temperature:       650.0000000
  free_energy:      -192.2085829
  entropy:           549.0157244
  heat_capacity:     245.6125438
  energy:            164.6516380

- temperature:       660.0000000
  free_energy:      -197.7175401
  entropy:           552.7664705
  heat_capacity:     245.7251055
  energy:            167.1083304

- temperature:       670.0000000
  free_energy:      -203.2637298
  entropy:           556.4624682
  heat_capacity:     245.8327985
  energy:            169.5661239

- temperature:       680.0000000
  free_energy:      -208.8466122
  entropy:           560.1052695
  heat_capacity:     245.9358978
  energy:            172.0249711

- temperature:       690.0000000
  free_energy:      -214.4656628
  entropy:           563.6963626
  heat_capacity:     246.0346593
  energy:            174.4848274

- temperature:       700.0000000
  free_energy:      -220.1203718
  entropy:           567.2371749
  heat_capacity:     246.1293214
  energy:            176.9456506

- temperature:       710.0000000
  free_energy:      -225.8102433
  entropy:           570.7290763
  heat_capacity:     246.2201067
  energy:            179.4074009

- temperature:       720.0000000
  free_energy:      -231.5347947
  entropy:           574.1733822
  heat_capacity:     246.3072228
  energy:            181.8700405

- temperature:       730.0000000
  free_energy:      -237.2935565
  entropy:           577.5713565
  heat_capacity:     246.3908637
  energy:            184.3335337

- temperature:       740.0000000
  free_energy:      -243.0860715
  entropy:           580.9242139
  heat_capacity:     246.4712107
  energy:            186.7978468

- temperature:       750.0000000
  free_energy:      -248.9118943
  entropy:           584.2331225
  heat_capacity:     246.5484337
  energy:            189.2629475

- temperature:       760.0000000
  free_energy:      -254.7705912
  entropy:           587.4992063
  heat_capacity:     246.6226918
  energy:            191.7288056

- temperature:       770.0000000
  free_energy:      -260.6617393
  entropy:           590.7235471
  heat_capacity:     246.6941339
  energy:            194.1953920

- temperature:       780.0000000
  free_energy:      -266.5849265
  entropy:           593.9071869
  heat_capacity:     246.7629001
  energy:            196.6626793

- temperature:       790.0000000
  free_energy:      -272.5397507
  entropy:           597.0511294
  heat_capacity:     246.8291217
  energy:            199.1306415

- temperature:       800.0000000
  free_energy:      -278.5258199
  entropy:           600.1563421
  heat_capacity:     246.8929221
  energy:            201.5992537

- temperature:       810.0000000
  free_energy:      -284.5427516
  entropy:           603.2237578
  heat_capacity:     246.9544174
  energy:            204.0684923

- temperature:       820.0000000
  free_energy:      -290.5901721
  entropy:           606.2542766
  heat_capacity:     247.0137168
  energy:            206.5383347

- temperature:       830.0000000
  free_energy:      -296.6677170
  entropy:           609.2487670
  heat_capacity:     247.0709232
  energy:            209.0087596

- temperature:       840.0000000
  free_energy:      -302.7750302
  entropy:           612.2080675
  heat_capacity:     247.1261335
  energy:            211.4797465

- temperature:       850.0000000
  free_energy:      -308.9117638
  entropy:           615.1329879
  heat_capacity:     247.1794392
  energy:            213.9512760

- temperature:       860.0000000
  free_energy:      -315.0775779
  entropy:           618.0243107
  heat_capacity:     247.2309264
  energy:            216.4233293

- temperature:       870.0000000
  free_energy:      -321.2721405
  entropy:           620.8827922
  heat_capacity:     247.2806767
  energy:            218.8958887

- temperature:       880.0000000
  free_energy:      -327.4951267
  entropy:           623.7091636
  heat_capacity:     247.3287669
  energy:            221.3689373

- temperature:       890.0000000
  free_energy:      -333.7462191
  entropy:           626.5041324
  heat_capacity:     247.3752700
  energy:            223.8424587

- temperature:       900.0000000
  free_energy:      -340.0251070
  entropy:           629.2683829
  heat_capacity:     247.4202546
  energy:            226.3164376

- temperature:       910.0000000
  free_energy:      -346.3314866
  entropy:           632.0025775
  heat_capacity:     247.4637860
  energy:            228.7908590

- temperature:       920.0000000
  free_energy:      -352.6650605
  entropy:           634.7073578
  heat_capacity:     247.5059258
  energy:            231.2657087

- temperature:       930.0000000
  free_energy:      -359.0255378
  entropy:           637.3833450
  heat_capacity:     247.5467326
  energy:            233.7409731

- temperature:       940.0000000
  free_energy:      -365.4126334
  entropy:           640.0311410
  heat_capacity:     247.5862618
  energy:            236.2166391

- temperature:       950.0000000
  free_energy:      -371.8260686
  entropy:           642.6513292
  heat_capacity:     247.6245659
  energy:            238.6926942

- temperature:       960.0000000
  free_energy:      -378.2655699
  entropy:           645.2444754
  heat_capacity:     247.6616950
  energy:            241.1691265

- temperature:       970.0000000
  free_energy:      -384.7308697
  entropy:           647.8111279
  heat_capacity:     247.6976964
  energy:            243.6459244

- temperature:       980.0000000
  free_energy:      -391.2217059
  entropy:           650.3518191
  heat_capacity:     247.7326153
  energy:            246.1230768

- temperature:       990.0000000
  free_energy:      -397.7378213
  entropy:           652.8670652
  heat_capacity:     247.7664944
  energy:            248.6005732

- temperature:      1000.0000000
  free_energy:      -404.2789641
  entropy:           655.3573674
  heat_capacity:     247.7993745
  energy:            251.0784034
