80
Lattice="-4.65812099 6.64017747 11.43346067 7.56030043 -8.21583603 8.56663504 6.03199848 6.92318747 -10.5151486" Properties=species:S:1:pos:R:3:forces:R:3 energy=-158.87944674212486 pbc="T T T"
Ba       0.67895322       3.23318216       2.74075589       0.12887790       0.06444145       0.06053503
Ba       3.74239870      -0.51062404       2.07843537      -0.32206079       0.15748554      -0.45915639
Zr       0.03369622       0.02944443       0.00699875       0.50270107      -0.28851679      -0.33345739
Zr       0.73671257      -0.37552707       5.00928060       0.26963134      -0.53550154      -1.09014908
S       -0.19418186       1.79841895       5.37122889      -0.88383322       0.92675568       0.35684961
S        1.63711508       1.98431664       0.02964447      -0.62200339      -0.29994180      -0.04661393
S        2.97680957       0.77373050       4.78556464      -0.11918564      -0.07918441       0.07993407
S        4.89328416       0.93606943      -0.40662458      -0.40255908      -0.21550955      -0.30284297
S        1.13717698      -0.56565857       7.46060093      -0.05805190       0.04229410      -0.21181954
S        0.38328313      -0.11320468       2.48168899       0.08926093      -0.21937793       0.55434925
Ba       3.65916272       6.79701122      -2.60256194      -0.18474368      -0.14894832      -0.56196142
Ba       6.71903039       3.00485564      -3.37557893      -0.01124451      -0.10070450      -0.10308467
Zr      10.51091631      -4.75989139       3.33624922       1.00942451      -0.14294047      -0.16413530
Zr       3.77232247       3.13087204      -0.22251088       0.00840438       0.01480584      -0.36859134
S        2.64128467       5.30158881      -0.17505820       0.00571573       0.21063752       0.69486023
S        4.52657982       5.43678388      -5.25142030       0.42648270       0.15544146      -0.26051658
S        6.08651433       3.97990442      -0.58071407      -0.05537201       0.46207544       0.31050329
S        8.02785585       4.38737328      -5.78992006      -0.33058774      -0.04201882      -0.36430236
S        4.09081026       2.89281193       2.34641700       0.05913654       0.64638208      -1.01099785
S        3.46681588       3.24477658      -2.79148908      -0.00673522      -0.17153905       0.46648873
Ba       4.32786316      -0.96022339       6.97052731       0.65763839       0.23452120      -0.39143233
Ba       7.65799870      -4.77036009       6.22199781       0.29242823       0.19539970       0.78700725
Zr       5.22497068       9.35759027       5.20197339      -0.44914707       0.59313043       0.21563828
Zr       4.55329790      -4.55864468       9.22025923       0.30789514       0.42217873       0.58503818
S        3.41644525      -2.29951535       9.48007661       0.04126734      -0.23039101       0.56401048
S        5.20866960      -2.11328914       4.08504482       0.41695564      -0.04909504       0.45562421
S        6.72415096      -3.40961179       8.98052038       0.64253896       0.19498808       0.07206071
S        8.66157264      -3.22981420       3.76232129      -0.14983304      -0.22081089      -0.44803677
S        5.08453915      -4.70049583      11.78407155      -0.46317465       0.22072943      -0.81367119
S        4.22900906      -4.15979644       6.79298696       0.10753258      -0.58091157      -0.32933798
Ba       7.58248688       2.54894596       1.70959979       0.25876829      -0.22154031       0.24989901
Ba      10.50254978      -1.18743675       0.97572410       0.22311763      -0.61475769      -0.20462789
Zr       6.78893598      -0.46772879      -0.90783661      -0.15719321      -1.22719514       0.02313420
Zr       7.43995799      -1.13900144       4.08306546       0.04779032       1.26345770      -0.80782772
S        6.45648729       1.17102165       4.20878443      -0.22164209       0.44784002       0.65152930
S        8.32014532       1.39993241      -1.23345307       0.14376112      -0.08433412       0.59296627
S        9.68368936       0.08803665       3.42723947      -0.21299475      -0.03100242       1.12686255
S       11.63530222       0.14254617      -1.47063051      -0.26917611       0.52238888      -0.46150474
S        7.89516488      -1.28397333       6.42236701       0.10261422       0.31476877       1.22366382
S        6.98413684      -0.86498202       1.50331246       0.41278680      -0.14743035       0.05907023
Ba      -1.39126559       6.41383957       8.44317932      -0.33611901       0.10231712       0.30354486
Ba       1.59661334       2.74392679       7.69150382      -0.15251783       0.10294709       0.48366900
Zr       3.75499244      10.12560256      -4.83804407      -0.44673872       0.92997119       0.15673460
Zr       4.51620245       9.69666175       0.08685481      -0.14834975       0.38606476       0.54228819
S       -2.85646855       5.04028122      10.95736132       0.67800256      -0.40846607       0.49915741
S       -0.84756290       5.32944380       5.65132561       0.51741557      -0.11250103      -0.26310315
S        0.49288042       4.06461599      10.36243655       0.40820299       0.32669681       0.17167596
S        2.52064208       4.12885936       5.20265590      -0.09707287       0.58212843      -0.18131713
S        4.90501093       9.36742460       2.76195207      -0.39462863       0.43290230      -1.18246430
S        3.95771963      10.02025658      -2.27219507       0.04221043      -0.45125156      -0.63706792
Ba       1.56825419      10.10169260       3.13123159      -0.25010526      -0.08496610       0.55313131
Ba       4.47608577       6.17384723       2.53292763      -0.00785177      -0.01324915      -0.28137882
Zr       0.70126075       6.76094290       0.46503253      -0.12257188       0.12586888       0.21185569
Zr       1.47711173       6.40952053       5.43568150      -1.01777099      -0.04345487       0.23876726
S        0.34500807       8.58558262       5.77425300      -0.07395072       0.18737260      -0.43474694
S        2.23544421       8.78503078       0.52673686      -0.38587767      -0.68432411      -0.48669414
S        3.75424991       7.40517881       5.26806311      -0.20268147       0.01417551       0.13271692
S        5.51009026       7.39461983      -0.23706467      -0.94837464       1.15374258       0.48390435
S        1.84275478       6.39233576       8.01288429      -0.31008601      -0.39549785      -0.54166073
S        1.26293722       6.59918317       2.94303966      -0.17917615      -0.27464107      -0.34279159
Ba       2.00431033       2.32123709      12.80388557       0.36764433       0.83957106      -0.56961785
Ba       4.88749026      -1.14979228      11.92742211       0.51441506      -0.38857050       0.53891593
Zr       7.45510593       6.05076264      -0.71276025       0.63789485      -0.14568778       1.15705067
Zr       2.19159297      -1.16563748      15.01716766       0.72261990      -0.72795355      -0.29375808
S        1.24795510       1.20536207      15.37197103       0.32306265      -1.36172048       0.17267683
S        2.87713996       1.23485409      10.14888113       0.03630488      -0.77771890      -0.43549630
S        4.47143850      -0.12620262      14.91251160      -0.38630416      -0.16749927      -0.18098877
S        6.28537982       0.01070057       9.46960566       0.00129413       0.33228954      -0.39406927
S        2.60410830      -1.39602018      17.54677109      -0.09870116       0.36713705      -0.14701344
S        7.75194314       5.80488605       1.93900872       0.04606372       0.19404531       0.73731253
Ba       5.01509193       6.00850102       7.63182390       0.26058590      -0.34436331       0.37604868
Ba       8.07446681       2.19280530       7.08125625       0.23024827      -0.01728022      -1.05661902
Zr       4.53072742       2.78588297       4.73264707       0.48702036      -0.99636857       0.55226675
Zr       5.12800946       2.28684508       9.82480333      -0.03180063      -0.04759101      -0.38377920
S        3.89567125       4.42022213      10.16191081       0.36440805       0.04859371      -0.33341228
S        6.09367187       4.75743058       5.03887672      -0.96498293      -0.55779058      -0.42172006
S        7.32118069       3.45624995       9.68702009      -0.22843247       0.05689928       0.10766996
S        9.35007297       3.46156061       4.22322491      -0.34726538       0.46908060      -0.02776877
S        5.53512835       2.09728402      12.27490452      -0.02483098      -0.16767133       0.22205408
S        4.75646374       2.34083175       7.25169455       0.28360576       0.07869313       0.55806952
240
Lattice="14.12842029 0.00125675 0.00966099 0.01818297 19.79573139 0.02469335 0.02384955 0.02718818 20.78358799" Properties=species:S:1:pos:R:3:forces:R:3 energy=-470.54184102546424 pbc="T T T"
Ba       6.92428213       2.27276964       3.68928557      -0.09673648       0.43288530      -0.36339271
Ba       3.91349613       7.51772236      20.58230787      -0.15368000      -0.28080416       0.44567206
Ba       0.11212815       7.55849257       3.26231502       0.53728500      -0.50755975       0.72388360
Ba       3.04309986       2.60410381       7.01488798       0.43252546      -0.41713575      -1.21515452
S        0.00900726       2.50447218       0.55165128      -0.21278464      -0.56107873       0.23779454
S        3.84965724       7.35657370      17.59231604      -0.54448410      -0.31075026      -0.09675533
S        7.06005503       7.57797064       6.52893094       0.14024674      -0.23866124       0.43019751
S        3.69550852       2.54330983       3.21145781       0.20594868       0.42978288       0.39498371
S        1.35878078       0.65097001       4.97590086       1.03242666      -0.58552055      -0.32665788
S        2.00798572       9.34493261       1.48178194       0.79345629       0.26001219       0.30654878
S        5.46739838       5.41319445       1.90513469      -0.63701402       0.12529926       1.00035877
S        5.34680172       4.54641254       5.65854437      -1.35910380       0.02055746      -1.25167641
S        5.79358641       9.22909845       1.90317714      -1.19861844       0.38391924       0.88579134
S        4.99718737       0.30399759       5.56671742       0.41028239       0.06269774       0.51436076
S        1.57827436       4.83272128       5.01610312       0.53403332      -0.12370885      -0.12036871
S        2.13706074       5.44522856       1.51552029       0.15302165      -0.28216636       0.44612822
Zr      14.10412082      19.73748553      20.79028098       0.27624533      -0.04734697       0.14713546
Zr       3.50824008       0.03530749       3.63999160      -1.57073188      -0.05204421      -1.22225310
Zr       0.26483205       4.82539324       0.10333948      -1.74577866       1.37888411       0.66342605
Zr       3.82969717       5.03208628       3.75463768      -0.94477200      -0.55155297      -0.09114941
Ba       6.40817329       2.41102699      10.62825101       0.62776349       0.63268983      -0.29147146
Ba       3.82947470       7.78577283       7.48207151       0.01516907      -0.48145873      -0.99964062
Ba       0.04502157       7.53918059      10.09831199       0.48614805      -0.11600511       0.30670307
Ba       3.35426492       2.51470934      14.01974640       0.18006659      -0.25252162      -0.97060437
S       14.01834192       2.50766617       7.34940611       0.04434251      -0.29900624       0.01581393
S        3.48660565       7.42946003       4.28360824       0.64528080      -0.48016298      -0.12949759
S        6.93964771       7.50393112      13.49505365      -0.02912699      -0.54191202      -0.42115404
S        3.31175389       2.48930851       9.93743330       0.56651596       0.04618042       0.30981096
S        1.66374406       0.07025746      11.86338320      -0.36395293      -0.03295622      -0.13507813
S        1.97905381      10.09252983       8.43274811      -0.60436057      -0.56932919      -0.82098408
S        5.71136773       5.43444688       8.95483551      -1.05335738      -0.06264114       0.73698268
S        4.92758625       4.72888334      12.51391156      -0.06827359      -0.18527042      -0.83585056
S        5.57016548       9.72645146       9.11323035       0.13559727      -0.52428990      -0.34824363
S        4.87043731       0.32783309      12.37723100       0.47517690       0.39059577      -0.25147373
S        1.56472328       4.71022430      11.73131651      -0.23381501       0.27081746       0.43858989
S        2.11107761       5.30037861       8.30904054      -0.01867056       0.07834313       0.15469917
Zr      13.99279866      19.78932488       7.03159300       1.11267776      -0.75613308      -1.41673697
Zr       3.62641516      19.78486319      10.08144962      -0.79706755      -0.72483018       0.96033697
Zr       0.02643780       4.89082600       6.97021511      -0.38034450       1.53319974      -0.04057201
Zr       3.64698658       5.03311812      10.27593506      -0.61552949       0.55619092       0.69929459
Ba       7.09827343       2.76705578      17.15631288      -0.24265391      -0.42569638       0.13463204
Ba       3.78137040       7.23364816      13.82893884      -0.22307345       0.86970989       0.11863753
Ba       0.47414547       7.22537083      17.44697458      -0.43248888       0.51672760      -0.03472557
Ba       3.07988898       2.49994655       0.32186608       0.53860203      -0.50515355      -0.60223744
S        0.35270937       2.44386279      14.02255857      -0.53827653      -0.26174645       0.37146435
S        3.32635891       7.59535286      10.63042537      -0.05765257      -0.91650584       0.13275710
S        7.17501177       7.39283782      20.21606593      -0.01410568      -0.03492664       0.10161936
S        3.85354920       2.42132191      16.89528984      -0.34175537      -0.41453292       0.46041084
S        1.52066999       0.29400262      18.79441243       0.22839265       0.11365492      -0.33665130
S        1.95901810       9.42353794      15.46719426       0.10159546       0.04652661      -0.26795268
S        5.60731883       5.20668461      15.94361158       0.24653568       0.24031509      -0.48646763
S        4.93158299       4.61451211      19.36965569       0.15794503      -0.41978229       0.52118022
S        5.46376867       9.70299979      15.77842049       0.74728561       0.55035936      -0.99259881
S        4.86934884       0.35465926      19.36935895      -0.21510680       0.18323516       0.03017940
S        1.55067725       4.64971083      18.87154649       0.47044603      -0.36168529      -0.92413403
S        2.13460797       5.16611106      15.39927829      -0.57929642       0.01405551      -0.31887002
Zr       0.09843953      19.72279136      13.78651203       1.18001676       0.42612204       1.01160951
Zr       3.47930828      19.75436485      17.37075961      -0.00488003      -0.70836078      -0.11021134
Zr       0.14020941       4.99608915      13.85593889       0.16404796      -0.42379236      -0.28861436
Zr       3.56392890       4.74095890      17.38283534       0.28088370       1.22174830      -0.54697141
Ba       6.72681980      12.73773811       3.24573861       0.16063063      -0.82922675       0.10660465
Ba       3.74842285      17.00566272      20.65372168      -0.16259989       0.91733286       0.91751724
Ba       0.13474542      17.40315884       3.69265295       0.17033251       0.26074071      -0.36630435
Ba       3.23217934      12.74659016       6.53789289       0.51488293      -0.98691569       0.92139223
S       14.12684435      12.23728018       0.58963035       0.04122263       0.52254392      -0.14210523
S        3.78759132      17.16560664      17.75777614      -0.28534482       1.38887378      -0.64208417
S        7.41104197      17.41004456       6.50699405      -0.45479866       0.42842726       0.28295750
S        3.47318409      12.33021546       3.06621647       0.20932329       0.08002698      -0.00724410
S        1.72234606       9.89899513       4.84282425      -1.00001355       0.69629629       1.01785983
S        1.98024386      19.49322239       1.48108833       0.57120015       0.38312563       0.40700951
S        5.59802247      15.43893228       1.93303636      -0.35719286      -0.40924211       0.28340230
S        5.14795588      14.71738426       5.28080613       0.04098907      -0.21544950      -0.07065779
S        5.53082846      19.49579773       2.07366122      -0.12888329      -0.04429532       0.44454734
S        5.09916472      10.36899535       5.41838979      -0.61032447      -0.17614610      -0.34213996
S        1.50152699      14.77991041       5.02614045       0.46314066       0.11485664      -0.51272760
S        1.89942035      15.14474695       1.50586759       0.66861672      -0.40221068       0.50828685
Zr      14.01465581       9.78491389       0.13289961      -0.70195491      -0.54029151      -0.40421597
Zr       3.82582290       9.63110794       3.33792394      -0.62653589       0.73218148      -0.00141388
Zr      14.15252353      14.69157111      20.76961866       0.76178914       0.24982713      -0.01705454
Zr       3.56345007      14.85353369       3.26839476      -0.17110579       0.56850891      -0.29746057
Ba       6.53996163      12.24694278      10.55226390       0.51310663       0.88655385       0.04790119
Ba       4.15309808      17.08597010       6.76199942      -0.89370125       1.13877030       0.60511615
Ba       0.38739003      17.06803061      10.77760056       0.08716910       0.96987411      -1.27706945
Ba       3.23614205      12.87440511      13.70812479       0.74606889      -1.43338238       0.27870483
S        0.16423708      12.37931442       7.06541347      -0.06289677       0.53671649       0.38410851
S        3.30762797      17.41357459       3.77324285       0.24038770      -0.48958284       0.41220035
S        7.15411907      17.35707447      13.42854841       0.20156225       0.77403998       0.57719194
S        3.55178511      12.52875208       9.98088101       0.05412730       0.00666960      -0.19965804
S        1.44640684      10.35207121      11.94233220      -0.15332009       0.00324854       0.24394622
S        2.14960191      19.38200148       8.23246691       0.17103758       0.20365986      -0.01110954
S        5.71964462      15.30482510       8.94216212       0.03767433       0.03514042      -0.35604570
S        5.21664435      14.88716627      12.35255730      -0.69424453      -0.79569999      -0.24310698
S        5.79956406      19.32444608       9.07057888       0.06709220       0.30970683      -0.59172187
S        4.87320196      10.26081182      12.33559184       0.82183005       0.15148867       1.15898943
S        1.59936059      14.44612250      11.80768601      -0.43235927       0.13247994       0.08282827
S        2.06930445      15.33362979       8.42909829       0.06529577      -0.25680040      -0.06231484
Zr       0.05043931       9.95132523       6.76165772       0.21366231      -1.73547877      -0.19780577
Zr       3.30795784      10.07276427      10.41923801       0.52293182       0.15072938       0.71627698
Zr      14.07032130      14.82039682       6.96390879      -0.48318729       1.38672485       0.33807190
Zr       3.68509277      14.99706139      10.30955198       0.08964870      -0.18397751      -0.33008253
Ba       6.49718005      12.49195358      17.24763936       1.10043860      -0.56024815       0.31321521
Ba       4.16938827      17.58661897      13.77379904      -1.13150195      -1.11662470       0.76309458
Ba       0.41746498      16.98085409      17.25833922       0.25488143       0.99884858       0.39019239
Ba       3.01221477      12.08485636      20.67639577       0.74617387       0.52652619      -0.03900355
S       14.05670009      12.34483701      14.34583283       0.12796190       0.17190053       0.23841118
S        3.61311109      17.34292967      10.88810385      -0.37252918       0.69771159      -0.52056511
S        6.97388565      17.39015735      20.23112155       0.30886691      -0.02643732      -0.30648643
S        3.51138907      12.39071556      16.87628232      -0.10868785      -1.11958342      -0.23271522
S        1.59721234       9.92778943      18.82983440      -0.75865101       0.26144617       0.43823506
S        2.14853528      19.35355564      15.34710769      -0.24113579       0.44383307       0.26283565
S        5.71975041      15.08844241      15.75108474      -0.62567072      -0.28193927       0.23881814
S        4.93061615      14.42492642      19.46931478       0.36469262      -0.20741618      -0.49686172
S        5.58041642      19.62877116      15.83936484      -0.02303202      -0.18911065       0.23092002
S        5.13457805      10.04575223      19.31190431      -0.53353281       0.67336958      -0.17821349
S        1.53603002      14.24171067      18.76205178      -0.40187093       0.47732362       0.22214240
S        2.12649217      15.21443524      15.33176797      -0.08551702       0.10004467      -0.51796094
Zr       0.05520791       9.81905274      14.01401219      -0.09999494       0.42876591       0.15931643
Zr       3.63945030       9.84166610      17.37637524      -0.63635971      -0.17455631      -0.17660279
Zr       0.08447781      14.74256711      13.71056963      -0.57514992      -0.20771830       1.03041913
Zr       3.65912881      14.77593176      17.20833654      -0.19790250       0.31396344       0.68476240
Ba      13.80265239       2.94284560       3.84345110      -0.02845542      -1.38156391      -1.16645238
Ba      10.61616541       7.42510530       0.49671522       0.85662802       0.24344975      -1.41982796
Ba       7.36280290       7.11176273       3.55610100       0.17158474       0.71945058      -0.17273800
Ba      10.55525178       2.38434714       6.94020030      -0.25164676       0.26161950      -0.27394416
S        7.17378753       2.49033174       0.62293628      -0.23887883       0.08177660      -0.16197858
S       10.60643493       7.50732133      17.87985319      -0.42108543      -1.00946933      -0.13529485
S       13.91603166       7.41239221       6.61390831       0.14261899       0.71797659       0.16027877
S       10.64340444       2.55665084       3.15098809      -0.06839501      -0.88422061      -0.28369642
S        8.83322304       0.28603570       5.14783138      -0.83461209       0.29032245      -0.01267539
S        9.12680872       9.78048667       1.47727869      -0.25944694       0.11699464       0.08838904
S       12.60641358       5.35930101       1.94148085      -0.54669138      -0.70943251       0.38770531
S       12.07946782       4.83530869       5.39278434       0.33488975      -0.17848635       0.92919335
S       12.56173447       9.68777905       2.06574875      -0.21850932      -0.06196901       0.22220322
S       12.20751085       0.21465701       5.36925603      -0.52207167       0.23917836      -0.05445415
S        8.68529484       4.62277993       5.06847409       0.22763135       0.01812294      -0.04241255
S        8.93450864       5.22256738       1.51753712       0.09507037      -0.29372331       0.60731034
Zr       6.74968163       0.11640983      20.76044820       1.37975423      -0.26576116      -0.02538540
Zr      10.56975035       0.02880625       3.33908252       0.28531238       0.00239228      -0.24638192
Zr       6.80800667       4.86784844       0.01985039       1.78283202       0.11634612      -0.51230188
Zr      10.60630041       5.00045744       3.40535879       0.13869100       0.11589757      -0.38953608
Ba      14.06300684       2.22210594      10.42642557      -0.02316085       0.76119516       0.45604877
Ba      10.63738436       7.10554276       7.19944192       0.62532407       0.44835358      -0.38949853
Ba       7.61874076       7.60820041      10.33805884      -0.53451641      -0.41741149       0.01254915
Ba      10.15991463       2.20759729      13.51989755      -0.04232693       0.67453052       0.64846746
S        7.14484024       2.63779417       7.53753673      -0.16748780      -1.15315373      -0.41214448
S       10.55519923       7.47667411       3.82997665      -0.27567841       0.15902335       0.37169273
S        0.04617208       7.44048949      13.32916530       0.04467476      -0.60256988      -0.26849598
S       10.68372809       2.58445140       9.93716236       0.45793466      -0.69438562       0.83800109
S        8.35009573       0.36558287      11.65777137       0.79697518      -0.08895655       0.54756027
S        9.11760394       9.65742370       8.34266739      -0.00203911      -0.20157813       0.21533901
S       12.65714556       5.11635604       8.92671703      -0.63542163       0.16440502       0.59874651
S       12.22407425       4.33915102      12.44760812      -0.39982016       0.43403958       0.03368816
S       12.56809896       9.82184630       8.75909007      -0.04361225      -0.10094105       0.19193992
S       12.31877932       0.19512605      12.30963943      -1.05959293       0.16603106      -0.20269805
S        8.47018334       4.54873446      11.85369099       0.38788493       0.29818598       0.29853202
S        8.89355371       4.93982097       8.81198413       1.06138196       1.05486160      -0.67564198
Zr       7.04262952       0.30182960       6.92910571       0.86718718      -0.45362037       1.14333956
Zr      10.62675806       0.20709542      10.47498884      -0.72063629      -0.42372560      -1.08211411
Zr       7.31636575       5.19551115       7.00198879      -0.32277318      -0.39283707       0.54198343
Zr      10.65944287       5.03861087      10.67761148       0.32308099      -1.07958954      -0.87582524
Ba      14.06306411       2.33400289      17.09366939      -0.69095633       0.16183192       0.38714182
Ba      11.08458008       7.13279107      13.87090976      -0.36915122       0.73586737       0.56812294
Ba       7.31729924       7.74329020      17.06108669       0.12485215      -1.02812941       0.44477060
Ba      10.42804654       2.77003849      20.73373304      -0.29708786      -0.78433679       0.08083581
S        6.92403487       2.49518463      14.16061260       0.26823296       0.43412732      -0.31877422
S       10.82071551       7.42730017      10.69213373      -0.21547532       0.62492782       0.18458651
S       13.76442399       7.38661813      20.60266117       0.64114169      -0.24656701      -0.64314002
S       10.60667753       2.57984093      16.60176190       0.16332312      -0.13199337       0.22630384
S        8.48513867       0.67247581      18.76458323       0.44381335      -0.63241598       0.12761143
S        9.10615557       9.43461250      15.15351994       0.17340321       0.27579862      -0.06454393
S       12.76755674       5.25673405      15.86423689      -0.10169603      -0.00041537      -0.22170062
S       12.18125936       4.68821795      19.27943766       0.18134678      -0.10540641      -0.31337301
S       12.56627924       9.40410035      15.95676430       0.65680428       0.09956531      -0.54892728
S       12.19401053       0.43530093      19.18404592      -0.40971301       0.02570798       0.10392057
S        8.52246250       4.78036722      18.83191395       0.52171729      -0.25159258      -0.00245642
S        9.08050997       5.16468121      15.31075899       0.02834772       0.29508558       0.05644290
Zr       6.92280895       0.10904239      13.80849859       0.51657079      -0.49603452      -0.27486622
Zr      10.44905773       0.20022515      17.20462288       0.23361568       0.24218350       0.83339253
Zr       7.06613858       5.03344594      13.88421543       0.15463987       0.04942596       0.29413222
Zr      10.59496855       5.01233510      17.45408871       0.29952418       0.54677349       0.25060567
Ba       0.07521165      12.34840387       3.92729223      -0.87489696       0.12677703      -1.57655850
Ba      10.91148991      17.14216759       0.27565574       0.23346610       0.67346962      -0.38110172
Ba       7.73189744      17.37811146       3.46330894      -1.20721585      -0.21515869      -0.25652652
Ba      10.02890070      12.11101499       6.69392001       0.42532652       1.08747544       0.62612661
S        6.98114371      12.34558699       0.22338467      -0.22538791       0.20988473       0.24382628
S       10.30038542      17.46166177      17.85441400       0.42986637      -0.24912945       0.27770931
S       14.03048635      17.31276682       6.73913896      -0.23384914       0.18938612      -0.25684543
S       10.87354412      12.41375183       2.99935347      -0.23532217       0.13849012       0.15843602
S        8.38117835      10.32578158       4.89475737       0.27691315      -0.09758099      -0.27930730
S        8.91255804      19.44086563       1.48732254       1.22234572       0.10491349       0.62533604
S       12.74346605      15.18769641       2.06223611      -0.53867063       0.11114474       0.44038478
S       11.89170846      14.50760642       5.74282608       0.38279980      -0.00968954      -0.22956575
S       12.64234110      19.44553322       2.04449850      -0.57604244       0.03870243      -0.20064754
S       12.17349521      10.33512512       5.36065186       0.14580519      -0.19928886       0.43833729
S        8.54331135      14.42432516       4.88531508       0.26674119       0.20761650       0.19865596
S        8.99009911      15.06085781       1.60268027       0.23253586       0.07759749      -0.38990403
Zr       7.23081362       9.83270955      20.70809172       0.11211298       0.10596721      -0.28147888
Zr      10.49183089       9.99097269       3.63074822      -0.04942207       0.35032664      -1.04293911
Zr       7.23412268      14.97388322      20.59864140      -1.73166259       0.09459365       0.61853665
Zr      10.71339616      14.89014688       3.50370491       0.47101710      -0.97349778       0.45655471
Ba      13.96547734      12.29422228      10.21122633      -0.05457781       0.24380723       0.15575575