80
Lattice="-9.02255085 8.2286526 4.98419727 3.28441769 -2.15113645 12.61625643 8.86166845 3.61984455 -9.31719427" Properties=species:S:1:pos:R:3:forces:R:3 energy=-120.52498922217637 pbc="T T T"
Ba      -0.83980591       3.90377858       1.34323116       0.03747617      -1.07858691      -0.11933091
Ba       2.14745925       1.10101111       2.90200874      -0.11388003       0.13227258       0.14542960
Zr       8.74759149       3.67409212      -9.23134674      -3.09057402       0.68811592      -1.66535819
Zr       7.35239420       4.98525468      -4.95809057      -0.43941696       0.30152177       0.69156210
S       -2.48561861       3.40881938       3.86751670      -1.41203086       1.10395227      -2.22508949
S        0.77587238       2.09685148      -0.29182308       1.29918452       1.73032781       0.03002866
S        0.54600544       2.68293279       4.50451298      -0.51093359       0.17003896      -0.09272362
S        3.80378488       1.31592428       0.64706439       0.76482049      -0.65304344       0.73857882
S        6.55494763       5.95801468      -2.71435327       0.51929361      -0.46353954       0.32659942
S        7.53444797       4.38816745      -7.27831111       1.18018788       0.06773395       0.28253818
Ba       3.51963364       5.67117577      -3.51417667       0.83737785      -0.29533012       0.98309066
Ba       7.00750989       3.18167334      -1.58375304      -0.55742169      -0.51484562       0.58839296
Zr      -4.40655735       9.91988063       0.30284268      -1.30962510       2.01949577       0.31759967
Zr       2.94985990       3.19814784      -0.20006242      -0.56455869       1.02472572      -0.87599950
S        1.92063246       5.13712127      -1.18219959       1.85502260      -1.43238321       0.13368258
S        5.22535784       4.03633939      -5.14291055       0.77983549      -0.62874653       0.44337286
S        4.86994906       4.53283332      -0.04804430      -0.44731643      -0.74627854       0.19343966
S        8.63509370       3.39319860      -3.85006159       0.80870977      -0.58238183      -0.11339397
S        2.23682311       4.10533802       1.98672213       0.32784202      -0.45602014      -1.33061359
S        4.05268984       2.85289207      -2.47235346      -1.04129581      -0.95513153       0.58717245
Ba       0.79869211       2.60942722       7.36718539       0.03248580      -0.57607788       1.02201186
Ba       4.39054605      -0.06796950       9.45946972      -0.49832269       1.52350487      -1.06116703
Zr       1.66633993      10.56858128       1.90352581       0.80343688       0.50571600       0.39801297
Zr       9.08926132       4.01758209       1.26244819       0.23980763      -1.16893758       0.98687726
S       -1.09253344       2.08022773       9.68614241       1.79782108      -0.56385150      -0.17278366
S        2.73075940       0.82273465       5.76314470      -0.12673992       1.75388550       0.76727897
S        2.16667047       1.66510681      11.03953086       0.00146191      -0.45228475      -0.12506740
S        6.00416177       0.53455758       6.86284242      -1.76025949       0.26371084      -0.59404728
S       -0.32605737       1.29520320      12.86180913      -0.72709818      -0.34364909       0.21361316
S        1.30071818      -0.53148613       8.73796709       0.21328904      -0.13761677      -1.97509779
Ba       5.28536466       4.69101361       2.76279515       0.78320263       0.02153927      -0.10354678
Ba       7.94937141       1.84508519       4.66147390       0.19347477      -0.11892238       0.04377534
Zr       5.93287635       0.90784525       1.63293779      -0.33367814      -0.91612072      -1.15397526
Zr       4.47643808       2.34064134       5.95900070       1.15902772      -2.11978953       1.70207120
S        3.79712773       4.23035338       4.88797057      -1.81134008       0.59413373       1.25542657
S        6.87907231       2.95511573       1.33164641       1.40959364       0.12421479      -0.11881900
S        6.51073067       3.59978965       6.38814184      -0.24869931       0.99377608      -1.13051358
S        9.67617382       2.02763865       2.46202138       1.36002665       0.46863651       0.20959416
S        3.83841127       2.96747323       8.30812122      -0.08904680      -1.53183556      -0.03647029
S        5.03698634       1.72552648       3.67343637       0.08778351      -0.37067042       0.44367177
Ba      -5.15925763       7.83929785       3.47675922      -0.36561876      -0.32078528      -0.12458792
Ba      -2.17413962       5.34511484       5.78337841       0.31548110      -0.01033592       0.44610366
Zr      -4.32742465       4.03803335       2.39466536       0.69115408      -0.13348137       0.57733438
Zr       2.90830877       9.23687890      -2.77289912      -1.19700598       0.66397644       3.37501103
S       -7.15742185       7.41234086       5.66460306       1.01272642      -0.27771598       0.50439080
S       -3.34664506       6.24683799       2.06886720      -0.80916642      -1.60244942      -0.55300047
S       -4.09160514       6.94304958       6.90457133      -0.25317725       0.96569735      -0.12013449
S       -0.50818848       5.61978579       3.47734957      -0.25666025       1.50124851       0.09772642
S       -6.45526707       6.70925750       8.91436647      -0.86824320      -1.81508824       0.29099967
S       -5.27570094       4.91905614       4.60505651       1.46395167      -1.02728085      -2.49768112
Ba      -0.82852938       9.72844997      -1.21127888       0.15031776       0.35211801       0.74689918
Ba       2.31918163       7.06259863       0.70441088       0.23931342       0.90603685       0.88449043
Zr      -0.04132402       5.79544541      -1.97152273      -1.79120313       0.18048668      -1.98996778
Zr      -1.38298461       7.46513509       2.12204392      -1.69030682       0.94939165       3.48335314
S       -2.41849051       9.46447563       1.32629635       1.17039880      -0.59318672       0.20111067
S        1.01418299       7.91265094      -2.22392091       1.15753601       0.48036027      -0.60250986
S        0.57221283       8.61805225       2.49162838       0.88829269       0.35070186       0.56163248
S        4.19533825       7.71898799      -1.40176359      -2.72882202       1.68723642      -1.64761902
S       -2.32118132       8.37611315       4.43291046       0.71631423      -0.06212252      -0.36041733
S       -0.69031581       6.77528642       0.15174436       0.53325798      -1.05125452      -2.51894121
Ba      -3.55462676       6.73290009       9.64862895      -0.09465465       0.40321285       1.22836201
Ba      -0.42422005       4.21485989      11.51366208      -0.46081281      -0.85508856       1.63802167
Zr       5.75173609       6.58681167      -0.41261833       2.24789152      -0.69300809      -0.25794685
Zr       4.51544894       8.14542809       4.01581691      -0.12050707       0.56084677      -0.84368059
S       -4.99456008       6.57026901      12.12973152      -0.80293563      -1.11439918      -0.23340585
S       -1.62858685       4.83603971       8.76008912       0.47597901       0.31732178      -0.78158354
S       -2.17804569       5.74144790      13.26085890      -0.88276834      -0.32061692       0.09130317
S        1.48051602       4.78754135       9.59355299       0.33520258      -0.62595707      -0.74158728
S       -5.16566681       5.46066143      15.30854391      -0.33248047      -0.04821798       0.98091466
S        5.32601100       7.34983791       1.79019910      -0.35008560       1.09537593       0.34531590
Ba       0.71488412       8.34332827       5.44076045      -0.07908093      -0.27120376      -0.59052220
Ba       3.92440872       5.59266766       7.40163843      -0.38734210       2.00798029      -0.45685650
Zr       1.56774042       4.78052682       4.16787717      -0.17201353      -0.24962961       0.92670183
Zr       0.09279215       6.41932626       8.58170016       1.04438767      -1.11995708      -0.49759166
S       -1.39207814       7.90341363       7.73706001      -0.14496221       1.01124828      -0.91701930
S        2.56976523       6.81288023       3.58970281       0.92707040       1.35833468       0.28083932
S        2.13006382       7.63059272       8.44711163      -0.45979589      -1.44094688      -0.10560008
S        5.75439363       6.45362300       5.13234993      -1.00313692       0.58547573      -0.26728578
S       -0.37720133       7.13128001      10.78053265      -0.04323229       0.56308317      -0.12504902
S        0.81024676       5.40051223       6.42893918       0.51581307       0.31133368      -0.03734616
135
Lattice="14.05527298 0.80261814 0.76849236 -0.422366 14.14722669 -0.82666185 -1.21590085 0.32595817 14.14783317" Properties=species:S:1:pos:R:3:forces:R:3 energy=-239.95201466674916 pbc="T T T"
Ba       1.59611462       2.57222135       2.61271938      -0.07281681      -0.53137151      -0.05550157
Zr      12.28631239      15.25282879      13.93227429       0.63264559      -0.00716532      -0.68721850
S       13.12158743      14.96943477       2.16062155      -0.29293455       0.45425155       0.81460036
S       13.45511871       3.11857720       0.96823754       0.86560660       0.68318898      -1.42672116
S        2.32319011       0.51217665       0.23555412      -0.92708475      -0.39938203       0.04356942
Ba       1.41838621       2.19589226       7.04203362      -0.40837609      -0.21357967       0.38007073
Zr      13.03770119      14.87668741       4.67894733      -1.00978095       1.80023940      -0.36727341
S       12.81911832      14.61046010       7.10608822      -0.58014190       0.16597550       0.15441629
S       13.09551954       3.12699296       5.61393953       0.32567111       0.59204008      -0.21089573
S        1.79023770       0.34692403       4.64836843       1.46841172       0.47765164       0.58071854
Ba       1.49758413       2.74400620      11.25990212       0.96380822       0.39673996       0.13849882
Zr      12.70549204      14.83110393       9.49561824      -0.18281757       1.06281321       0.13880212
S       -0.45491368       0.87899031      11.73309565      -1.48117857      -0.83089713       0.92570265
S       -0.78354335       2.48962738       9.11647191      -0.30364351      -0.49683823       0.00358005
S        1.10679081      14.14077777       8.52654475       0.24524168      -0.12645009       0.55146209
Ba       1.83482151       7.15604472       2.56941979       0.01270757      -0.04136316      -0.73495595
Zr      -1.08817474       4.94193381      13.88193167       0.14603393       0.54201980       0.05623756
S        0.00372440       4.95642977       2.18082507      -0.92176257       0.00092121      -0.15410063
S        0.60215892       7.03639851      -0.28046680       0.10230893      -1.03251019       0.28497744
S        1.08021976       3.96952775      14.03917840       0.47098581       0.25811386      -0.08529202
Ba       1.78494287       7.58164096       6.82588332       0.12644335       0.29946019      -0.29769403
Zr      13.45867901       5.61179474       5.45452792      -0.58642850      -0.39818710      -0.38318463
S       12.27241828       5.66775826       7.49069045      -0.38933621       0.32104748       0.60510095
S       -0.38818835       7.27430619       4.68978680      -0.67664272       0.61836811      -0.20257901
S        1.75259662       4.71583671       5.06970306      -0.09115680       0.22063881      -0.45723564
Ba       0.94892758       7.57386096      11.23356703      -0.58347878      -0.08751070       1.21604080
Zr      13.08289631       5.74952553       9.87623883       0.10541158      -0.02223421      -1.47659125
S       -0.51832365       4.95556431      11.41095753      -0.50138532       0.30431437       1.34440683
S       -0.58335213       7.44480280       8.63595298      -0.72171566      -0.47489888      -0.20323042
S        1.30489568       4.84857449       8.20545832       0.40361512       0.66837110       0.63285297
Ba       1.90328022      12.32532212       1.56306374      -0.09854081       0.48392300       0.16977061
Zr      -1.21483073       9.61913015      13.55343767      -0.05055400       0.66534557      -1.43799960
S       -0.29433419       9.39637524       1.75421487       0.33307373       0.47120315       1.09357778
S       -1.27253974      12.11498811      13.39611298      -0.14885231      -0.44404252      -0.32057571
S        1.04296951      10.05969706      12.80055056      -0.78408557      -0.25432982       0.30709974
Ba       1.40620238      12.23659375       6.21835462       0.81916130      -0.51649665       0.19486528
Zr      -0.68092256       9.70690617       4.16091125      -0.15934411      -0.24067869       0.52029300
S       12.96538646      11.25181225       7.26005284       0.02425207      -0.05994645      -0.34303800
S       -0.09228188      11.97408198       3.61315220       0.11240328      -1.97655324      -0.06725819
S        1.66865611       9.67020825       4.65167990      -0.17749065      -0.38695533       0.25593621
Ba       1.22788694      12.45974349      11.28657061       0.36975831       0.64857302       0.13187883
Zr      12.95968900      10.59271684       9.53794263       0.31450062      -0.03204438       0.74867540
S       12.42005929      10.03129403      11.93891752       0.25852074       0.03700664      -0.28124641
S       12.78816274      12.77587012      10.65942315      -0.30946738       0.00131312      -0.22454553
S        1.36895554      10.45652124       8.88870219      -0.90560963      -0.48607631      -0.42540356
Ba       6.91281014       2.72718060       2.45045321      -0.34052412      -0.24730009       0.12277540
Zr       4.64998602       0.46253109       0.53507081       0.25118869       0.14289171      -0.67959196
S        4.17921017       1.26610337       2.76765365       0.77392085      -0.05399904      -0.17923031
S        4.16885796       3.01607242      13.98374419      -0.20134290      -0.82153194       0.87646277
S        6.62044599      14.32731434       0.06994461      -0.26994723      -0.16661153       0.18683998
Ba       6.62156054       3.10485203       7.40687682       0.03121696       0.27748888      -0.06668431
Zr       4.28762134       0.72335180       5.10727429      -0.74543968       0.08113769      -0.25191340
S        3.53742731      14.34279024       6.57773285      -0.40830979      -0.03124075      -0.83717039
S        4.02417029       3.01357395       5.98917098       0.50763893      -1.21354923      -0.61597111
S        6.67961964       0.87122884       5.00045578       0.40759813       0.34840539      -0.03681013
Ba       5.98043051       3.42744814      11.86662238       0.33346857      -0.14387502      -0.62051026
Zr       3.47718700      14.45451514       8.97661817      -0.00906943       1.95792474       0.73296466
S        3.73820259       0.56917027      12.20865327       0.18839632      -0.21383429      -0.67768206
S        3.70072851       2.84258016       9.13807508      -0.20216100      -0.37538894       0.59149343
S        6.13233497       1.22954667       9.50656784       0.00176246      -0.72535765       0.21268982
Ba       6.41617437       6.97073497       2.38604834       0.44496995       0.22547525      -0.07603404
Zr       4.45143276       4.89034717      -0.00037795      -0.70055646      -0.27034666      -0.70064357
S        4.14514858       4.68164317       2.38538779      -0.18352039      -0.22267391       0.00172065
S        4.08296291       7.27678567       0.01017004      -0.02924880      -0.21085929      -0.02419754
S        5.68741506       5.63048854      14.10398147      -0.70501221       0.23690064       0.22305586
Ba       6.73209669       7.41158900       6.60972771      -0.70032778       0.60765992       0.61440645
Zr       4.18179821       5.07577322       4.72933679      -0.31724367      -0.56239560       1.15598288
S        4.24374759       6.00361577       7.00014303      -0.11783467      -0.10978445       0.73080320
S        4.12105174       7.45663940       4.30088062       0.37895251      -0.60577242       0.40532282
S        6.60180747       4.82841235       4.86916436       0.48732703      -0.07129988      -0.57854797
Ba       5.21091006       7.71426450      11.85025449       0.26003075      -0.29025860       0.29862885
Zr       3.51602113       5.21868153       9.25414930       0.37721613      -0.19082987      -0.78748665
S        3.17654245       5.19185192      11.69177918      -0.00349337       0.41901531      -0.37805584
S        3.11514391       7.61850114       9.61437076       0.59908844       0.11895921      -1.13699853
S        6.02221357       5.42435643       9.56359059      -0.99818481       0.16471793      -0.49786810
Ba       6.44123735      12.34894366       2.26130446       0.45059879      -0.04644273      -0.32896475
Zr       4.39142508       9.69521938      -0.17810548      -0.71978255       0.24858257      -0.89417733
S        3.23142289       9.69532518       1.88802670      -0.51860662       0.29025606       0.06268515
S        4.41344332      12.16877243       0.00178102      -0.22379410      -0.03232718      -0.49871228
S        6.63394966       9.63336237       0.40955101       1.24041577      -0.18877572      -0.22274540
Ba       5.89302406      12.68012484       6.58604705       0.61046578      -0.50035960       0.57135806
Zr       3.99134593       9.85599106       4.14805270       0.70405649       0.86971306       1.08681646
S        4.21379314       9.99334360       6.63890010       0.01167124      -0.08191759       0.13539908
S        4.03408815      12.29689453       4.13444395      -0.10709814       0.56668489      -0.62641634
S        6.35585569       9.61248078       3.69678008      -0.29392685       0.30120404      -0.11720274
Ba       5.63594337      12.34493604      11.87960675      -0.33779069      -0.13435633       0.33886824
Zr       3.71785572       9.97524130       9.04875737       0.40337652      -0.61604086      -0.46812316
S        3.63072485      10.25411506      11.46340914       0.35231473      -0.02567686       0.79349772
S        4.30750740      12.30606197       9.11683809       0.66711461      -0.67173053       0.31543531
S        5.87454898       8.71305808       9.12886852       0.75772102       0.70384927       0.11816466
Ba      11.44792388       3.18505987       2.79168272      -0.80707667      -0.35703324       0.75547778
Zr       7.75850088      14.86114606      13.75036505      -0.15926682       1.75716758       0.53554662
S        9.55742755       0.63747814       2.85129051       0.10472503       0.07094513       0.73377833
S        8.24479020       3.26117277      14.25871316       0.41157201      -0.15285557      -0.40405986
S       10.03998496      14.74934703      13.12754871       1.49058750       0.67515672      -0.06276384
Ba      10.87195220       3.04596520       8.11288128       0.48335176      -0.17384413       0.41433894
Zr       8.70188657      14.68486184       4.48342305       0.57261904       0.84721287      -0.33629206
S        8.75384073       0.83565515       7.81168334       0.40633695      -0.49249282      -1.09744914
S        9.96090495       2.83917889       5.43094988      -0.78395823       0.38535774      -0.80151699
S       10.97501386      13.71543225       4.69729039      -0.96721394       0.23925734      -0.54402354
Ba      10.89342976       3.46461518      12.33690942      -0.19069150      -0.91325025       0.43935683
Zr       7.96171602      14.74900154       9.39254266      -1.20452209       0.79592597       0.11605441
S        7.26254092       0.79348751      12.35629478       0.20151957       0.24637616      -0.57001242
S        8.57325530       3.17640594      10.07573373       0.07639511      -0.35674706       0.76861272
S       10.24358346      14.87932058       9.90113310       1.64204321      -0.23253724      -0.19675236
Ba      11.71730692       8.13203474       2.52071916      -0.23505790      -0.93385482       0.21248230
Zr       9.33070249       5.38072760       0.28040541       0.07746412      -0.00153779       0.01206823
S        8.91012748       4.70236515       2.58000794      -0.05020026       0.90373625       0.55357680
S        9.13012069       7.66726691       1.29563561       0.08911545      -0.18153552      -0.71691779
S       10.53365753       6.09900736      14.14965905       0.02545385      -0.32741962       0.73853659
Ba      11.04055120       8.40138792       6.98732634      -0.25037632      -0.82730563       0.43869427
Zr       9.07469901       5.10627476       5.00325752       0.16966799      -0.24702637       0.11134998
S        8.86359304       5.26311491       7.39041017      -0.02340730       0.23032115      -0.03975235
S        8.88158442       7.67999566       4.64126455       0.49355894      -1.42450502      -0.22468409
S       11.26460773       5.78377383       4.32781125       0.58897118       0.29233220      -0.08492075
Ba      10.27326562       8.03475083      12.03861614       0.80747478       0.23369299      -0.70792557
Zr       8.36450458       5.55914922       9.88256124      -0.24336058      -0.87690794      -0.75616350
S        7.82253296       6.28185053      12.06437237       0.20642388       0.14993627       0.74502948
S        9.05287772       7.72718148       9.22568790       0.11950601       0.97718980      -0.72532344
S       10.73710394       5.52705948      10.41726857       0.79715257       0.35834025      -0.28545736
Ba      11.59817473      12.45124135       2.02413006      -0.65522715      -0.03309430      -0.17146113
Zr       9.09498656       9.82299617       0.06345211      -0.30425240      -0.90431317       0.77966130
S        9.14315203      10.82210414       2.29223546       0.04154145       0.09681097       0.07478558
S        7.98225430      12.52932464      13.85122444      -0.24652370      -0.60611404      -0.54056668
S       10.32260635      10.25988211      14.16009536       0.26879810      -0.20670677       0.35851208
Ba      10.19518524      12.50059594       7.20459418      -0.14811549       0.09834427       0.41079183
Zr       8.59093635       9.98353054       4.48451590      -0.16825606       0.57629517      -0.41911227
S        8.07950184      10.14770919       6.83390027      -0.30697887       0.15990819       1.11037842
S        8.10993539      12.42485660       4.72593570      -0.02308187      -0.55748905       0.21835889
S       10.94613100      10.54412853       4.87189382       0.82079534      -0.22354598      -0.54738692
Ba      10.11636939      12.20068932      11.67419534      -0.22235423      -0.32829654       0.18663660
Zr       7.99038685       9.89541387       9.31136424      -0.61940782      -0.25319794      -0.06924611
S        7.78699864       9.66305505      11.82591724      -0.55040194       0.65171814      -0.45089054
S        7.69145819      12.36769279       9.46440174       0.12389380      -0.55321130       0.00086666
S       10.48530140      10.32064180       9.28264212       0.29753256       0.56845873       0.31355731
80
Lattice="-3.67485992 0.70240706 13.1990463 13.38534416 1.36345677 3.24899625 -5.60966083 8.62660079 -8.97819424" Properties=species:S:1:pos:R:3:forces:R:3 energy=-150.13431693241 pbc="T T T"
Ba      -1.20037756       2.75493281       3.08866904       0.18109257       0.03564760      -0.76680334
Ba       3.15239836       2.65322855       0.72497391       0.63565956      -0.65511213      -0.91874362
Zr      13.23080572       1.48557651       3.39055530       0.22607755      -0.37859714      -1.00775397
Zr       2.28726602       0.52561567       4.19221854       0.87165845       0.04625497      -0.16519429
S       -5.29247776       8.71094213      -3.43874245       0.98414925       0.14546430      -0.51676576
S       -0.87334593       2.41059942      -0.38249137       1.48545004       1.47780528      -0.91225367
S        2.21173455       3.00318047       4.53427736      -0.13631593      -0.37657986      -0.75476602
S        1.73639774       4.66265853      -1.79582409      -0.90693951       0.77982881       0.49133245
S       -1.90693493       9.07691458      -2.74268737      -0.56396226      -0.53864540       0.19583080
S        1.09815754       0.89534979       1.95446538       0.79040637       0.16462560       2.04173071
Ba      -3.94534661       6.71504221      -1.39290078      -1.17464191       1.31544546       0.60901943
Ba       0.20692048       6.99308561      -3.86403453       0.32161878       0.26241783      -0.78757723
Zr      -6.35873094       5.02362257       8.72634175      -1.02678140      -0.99866237      -1.84947264
Zr      -0.30346553       4.97087139      -0.63691171      -1.05610116      -1.29483454       2.49050020
S       -2.50297620       4.84243219       0.71325447       0.21330039       0.15691118       0.64071056
S       -3.42177146       6.67725796      -5.18296187       1.20382410      -0.02112554       0.08016089
S       -0.22278053       7.32874661       0.14901775       0.04709190      -0.91898450      -0.64403959
S        4.47881938       0.75707611       3.03631788       0.52552128       0.08936487      -0.90596900
S        1.09322287       4.58030702       1.53735526      -1.02734656       0.60415849       0.04864826
S       -1.92364259       5.24782459      -2.50138020       2.56737705      -0.11748272       1.11000999
Ba       5.60641815       3.38197672       4.83537913       0.11213052      -0.37977934       0.16680834
Ba       9.73269731       3.35170282       2.13752675      -0.03462795      -0.19738880      -0.14996972
Zr      -2.75245242       9.96555844       5.58442008      -1.34865899       0.00474508       2.64188105
Zr       9.03406860       1.42697476       5.65292172      -0.10678607      -1.39213144      -0.07924253
S        1.21692031       9.37906495      -2.45297785      -0.00069612       0.31440765       1.49759265
S        6.52723239       2.98593852       0.73509181      -0.58364598      -0.31930688       0.20149420
S        8.86140695       3.74817712       6.04911547       0.24283110      -0.04801084       0.34222594
S        8.36623628       5.52778131      -0.09098947       1.25706352       0.21061398      -1.00212505
S        4.93650077       9.40052074      -1.32900778      -0.93369324       0.49298651       0.87487845
S        7.89085112       1.49079663       3.49786331      -0.27785328      -0.10010594      -0.23576914
Ba       2.63634010       7.81325677       0.44870358       1.48455243       0.04519649      -0.32348435
Ba       7.07956048       7.56122975      -2.33904526      -0.44075806       0.10287004       0.08977076
Zr       3.82884317       5.04455894      -2.87895908       1.79245374       1.53872408       0.45086134
Zr       6.35185825       5.29059068       1.21058363      -0.18522829       1.64430010       0.12544435
S        4.16397701       4.80769608       2.36344373       0.56209556       1.38452056       1.20820281
S        3.60386197       7.48363648      -3.61505226      -0.04269344      -2.02661619       0.10564759
S        6.43911143       7.92103409       1.79714366      -0.06895965      -0.51982785      -1.86161523
S       11.22379985       1.44801723       4.62340735      -0.27885445      -0.12901907       0.11815169
S        7.77146726       5.22838053       3.19727608      -0.74529680       0.24521599       0.99886236
S        5.02170832       5.78889702      -0.79780021      -0.87952706       0.21125365      -0.28953602
Ba      -2.76137187       2.81392801      10.14959820      -1.16406654      -0.19172201      -0.93991696
Ba       1.52722656       3.31164294       7.31742134      -0.14382269      -1.15287103       0.45582788
Zr       5.96663064      10.20145214       0.74673060      -1.73915423      -0.13595751       0.34794962
Zr       0.38084701       0.92468048      10.45334527       1.13980060      -1.04194466       0.52924314
S       -7.10951207       9.38621589       3.14449539      -0.82568867       0.33610396      -0.62495257
S       -1.95500424       2.69827451       5.89149789      -0.31733011      -0.10692161       0.32333870
S        0.51643976       3.20929257      10.94406826       0.28420469       2.36680178       0.14344191
S       -0.11006561       5.41281524       4.80176481       0.10819843       0.04736473      -0.03499911
S       -3.85293887       9.45335000       3.60856458      -0.10056706      -0.71298884       0.42981060
S       -0.86988890       1.27749763       8.55015009       0.64726416       0.01836462      -0.66482976
Ba      -5.90704833       7.49060484       5.08533424       0.45618075      -0.80613496       0.36179864
Ba      -1.50785822       7.43869942       2.78464282      -1.02229139      -0.48475443       0.16776335
Zr      -4.57991974       4.74944488       2.07821948      -0.56549461       0.37791532       0.08716726
Zr      -2.01840957       5.19101489       6.22039640      -0.99623195      -0.22791982      -0.08096525
S       -4.18030854       4.81179659       7.45903313      -0.14427749       0.97645139       1.92236077
S       -5.05642155       7.08359167       1.48502666      -0.19042069      -0.25823857       0.07471371
S       -2.48045005       7.66781747       6.50797158       0.47005991      -0.70027302      -0.17847889
S       -2.83710150       9.52849536       0.49636329       0.31869362       0.10956344      -0.13107275
S       -0.79117584       4.93401317       8.32369185      -0.42062008      -0.15905395      -0.78565524
S       -3.44613064       5.22910569       4.19092490      -0.03167163       0.54500195      -0.36762890
Ba       3.98827738       3.42505349      11.18547548      -0.37679386       0.32833005      -0.01870072
Ba       8.15300534       4.10493709       9.08656301       0.92897318      -0.89968908      -1.35214190
Zr      -0.58492024       9.57005503      -0.69702599      -0.91041324       0.73006626      -0.74610062
Zr       1.56398876      10.15229709       3.49472797       0.94607924       0.38662638      -0.50731157
S       -0.70233888       9.79474000       4.52161723       2.55273941       0.28696517      -1.08628271