nqpoint: 600    
npath: 12     
segment_nqpoint:
- 50
- 50
- 50
- 50
- 50
- 50
- 50
- 50
- 50
- 50
- 50
- 50
labels:
- [ 'G', 'X' ]
- [ 'X', 'S' ]
- [ 'S', 'Y' ]
- [ 'Y', 'G' ]
- [ 'G', 'Z' ]
- [ 'Z', 'U' ]
- [ 'U', 'R' ]
- [ 'R', 'T' ]
- [ 'T', 'Z|Y' ]
- [ 'Z|Y', 'T|U' ]
- [ 'T|U', 'X|S' ]
- [ 'X|S', 'R' ]
reciprocal_lattice:
- [   0.14138282,   0.00000000,   0.00000000 ] # a*
- [   0.00000000,   0.10073398,   0.00000000 ] # b*
- [   0.00000000,   0.00000000,   0.14388615 ] # c*
natom: 20     
lattice:
- [     7.072995341167000,     0.000000000000000,     0.000000000000000 ] # a
- [     0.000000000000000,     9.927137044808999,     0.000000000000000 ] # b
- [     0.000000000000000,     0.000000000000000,     6.949939268379000 ] # c
points:
- symbol: Ba # 1
  coordinates: [  0.050585012233000,  0.750000000000000,  0.011164160695000 ]
  mass: 137.327000
- symbol: Ba # 2
  coordinates: [  0.949414987767000,  0.250000000000000,  0.988835839305000 ]
  mass: 137.327000
- symbol: Ba # 3
  coordinates: [  0.550585012233001,  0.750000000000000,  0.488835839305001 ]
  mass: 137.327000
- symbol: Ba # 4
  coordinates: [  0.449414987767001,  0.250000000000000,  0.511164160694999 ]
  mass: 137.327000
- symbol: Zr # 5
  coordinates: [  0.500000000000000,  0.000000000000000,  0.000000000000000 ]
  mass: 91.224000
- symbol: Zr # 6
  coordinates: [  0.500000000000000,  0.500000000000000,  0.000000000000000 ]
  mass: 91.224000
- symbol: Zr # 7
  coordinates: [  0.000000000000000,  0.000000000000000,  0.500000000000000 ]
  mass: 91.224000
- symbol: Zr # 8
  coordinates: [  0.000000000000000,  0.500000000000000,  0.500000000000000 ]
  mass: 91.224000
- symbol: S  # 9
  coordinates: [  0.709801039296000,  0.033469022605000,  0.709553673634000 ]
  mass: 32.060000
- symbol: S  # 10
  coordinates: [  0.709801039296000,  0.466530977395000,  0.709553673634000 ]
  mass: 32.060000
- symbol: S  # 11
  coordinates: [  0.290198960704000,  0.966530977395000,  0.290446326366001 ]
  mass: 32.060000
- symbol: S  # 12
  coordinates: [  0.290198960704000,  0.533469022605000,  0.290446326366001 ]
  mass: 32.060000
- symbol: S  # 13
  coordinates: [  0.790198960704000,  0.966530977395000,  0.209553673633999 ]
  mass: 32.060000
- symbol: S  # 14
  coordinates: [  0.790198960704000,  0.533469022605000,  0.209553673633999 ]
  mass: 32.060000
- symbol: S  # 15
  coordinates: [  0.209801039296000,  0.033469022605000,  0.790446326366001 ]
  mass: 32.060000
- symbol: S  # 16
  coordinates: [  0.209801039296000,  0.466530977395000,  0.790446326366001 ]
  mass: 32.060000
- symbol: S  # 17
  coordinates: [  0.494559474301000,  0.750000000000000,  0.936303549096001 ]
  mass: 32.060000
- symbol: S  # 18
  coordinates: [  0.505440525699001,  0.250000000000000,  0.063696450904000 ]
  mass: 32.060000
- symbol: S  # 19
  coordinates: [  0.994559474301000,  0.750000000000000,  0.563696450903999 ]
  mass: 32.060000
- symbol: S  # 20
  coordinates: [  0.005440525699000,  0.250000000000000,  0.436303549096001 ]
  mass: 32.060000

phonon:
- q-position: [    0.0000000,    0.0000000,    0.0000000 ]
  distance:    0.0000000
  band:
  - # 1
    frequency:   -1.0116966473
  - # 2
    frequency:   -0.0008674857
  - # 3
    frequency:   -0.0008165009
  - # 4
    frequency:    0.0080268193
  - # 5
    frequency:    1.5269854083
  - # 6
    frequency:    1.7444512685
  - # 7
    frequency:    1.8413523585
  - # 8
    frequency:    1.8778959828
  - # 9
    frequency:    1.9129781794
  - # 10
    frequency:    1.9646925551
  - # 11
    frequency:    1.9659445257
  - # 12
    frequency:    2.1778210857
  - # 13
    frequency:    2.2492338533
  - # 14
    frequency:    2.2535814293
  - # 15
    frequency:    2.2622804227
  - # 16
    frequency:    2.2884922389
  - # 17
    frequency:    2.4205518235
  - # 18
    frequency:    2.5980664608
  - # 19
    frequency:    2.7693461794
  - # 20
    frequency:    2.8723815378
  - # 21
    frequency:    3.2443437418
  - # 22
    frequency:    3.3281323823
  - # 23
    frequency:    3.3294460015
  - # 24
    frequency:    3.3706289499
  - # 25
    frequency:    3.4558052545
  - # 26
    frequency:    3.8127145980
  - # 27
    frequency:    3.9485587434
  - # 28
    frequency:    4.0816499451
  - # 29
    frequency:    4.2190517449
  - # 30
    frequency:    4.2973545372
  - # 31
    frequency:    4.5842162714
  - # 32
    frequency:    4.6715516551
  - # 33
    frequency:    4.7440752904
  - # 34
    frequency:    4.9386751433
  - # 35
    frequency:    5.0087401311
  - # 36
    frequency:    5.0604701218
  - # 37
    frequency:    5.1541529519
  - # 38
    frequency:    5.1896136667
  - # 39
    frequency:    5.9993622546
  - # 40
    frequency:    6.0404988168
  - # 41
    frequency:    6.1789627656
  - # 42
    frequency:    6.4049972067
  - # 43
    frequency:    6.5343271080
  - # 44
    frequency:    6.6041036116
  - # 45
    frequency:    6.7636416909
  - # 46
    frequency:    6.7817687425
  - # 47
    frequency:    6.7870952709
  - # 48
    frequency:    7.4107416438
  - # 49
    frequency:    8.3636026641
  - # 50
    frequency:    8.6512982845
  - # 51
    frequency:    8.6946345857
  - # 52
    frequency:    8.6988479510
  - # 53
    frequency:    8.7097028157
  - # 54
    frequency:    8.7680097961
  - # 55
    frequency:    8.8475426737
  - # 56
    frequency:    9.0212009627
  - # 57
    frequency:    9.1376232628
  - # 58
    frequency:   11.3156134602
  - # 59
    frequency:   12.0469201290
  - # 60
    frequency:   12.6782873385

- q-position: [    0.0000000,    0.0000000,    0.0102041 ]
  distance:    0.0014682
  band:
  - # 1
    frequency:   -1.0088202405
  - # 2
    frequency:    0.0377424313
  - # 3
    frequency:    0.0467856501
  - # 4
    frequency:    0.0886095016
  - # 5
    frequency:    1.5276205574
  - # 6
    frequency:    1.7438714784
  - # 7
    frequency:    1.8416877184
  - # 8
    frequency:    1.8777990957
  - # 9
    frequency:    1.9116208102
  - # 10
    frequency:    1.9641682964
  - # 11
    frequency:    1.9661026738
  - # 12
    frequency:    2.1786223524
  - # 13
    frequency:    2.2489505972
  - # 14
    frequency:    2.2550345105
  - # 15
    frequency:    2.2626224515
  - # 16
    frequency:    2.2895252753
  - # 17
    frequency:    2.4210846159
  - # 18
    frequency:    2.6001694859
  - # 19
    frequency:    2.7698397255
  - # 20
    frequency:    2.8728010577
  - # 21
    frequency:    3.2445347138
  - # 22
    frequency:    3.3283217783
  - # 23
    frequency:    3.3328568221
  - # 24
    frequency:    3.3719281552
  - # 25
    frequency:    3.4561575447
  - # 26
    frequency:    3.8133440385
  - # 27
    frequency:    3.9485629850
  - # 28
    frequency:    4.0818019324
  - # 29
    frequency:    4.2189858034
  - # 30
    frequency:    4.2978854640
  - # 31
    frequency:    4.5843458658
  - # 32
    frequency:    4.6716761730
  - # 33
    frequency:    4.7439790881
  - # 34
    frequency:    4.9387895740
  - # 35
    frequency:    5.0076050430
  - # 36
    frequency:    5.0617456444
  - # 37
    frequency:    5.1539751981
  - # 38
    frequency:    5.1901131436
  - # 39
    frequency:    5.9986147715
  - # 40
    frequency:    6.0400780484
  - # 41
    frequency:    6.1790122996
  - # 42
    frequency:    6.4029730338
  - # 43
    frequency:    6.5338966265
  - # 44
    frequency:    6.6031863448
  - # 45
    frequency:    6.7632866443
  - # 46
    frequency:    6.7836177617
  - # 47
    frequency:    6.7868368604
  - # 48
    frequency:    7.4105063299
  - # 49
    frequency:    8.3638055748
  - # 50
    frequency:    8.6509714951
  - # 51
    frequency:    8.6947235042
  - # 52
    frequency:    8.6988586267
  - # 53
    frequency:    8.7101118317
  - # 54
    frequency:    8.7684264428
  - # 55
    frequency:    8.8487133116
  - # 56
    frequency:    9.0210559573
  - # 57
    frequency:    9.1383180229
  - # 58
    frequency:   11.3160193425
  - # 59
    frequency:   12.0479515546
  - # 60
    frequency:   12.6783424739

- q-position: [    0.0000000,    0.0000000,    0.0204082 ]
  distance:    0.0029365
  band:
  - # 1
    frequency:   -1.0001591436
  - # 2
    frequency:    0.0742248782
  - # 3
    frequency:    0.0935070959
  - # 4
    frequency:    0.1770834034
  - # 5
    frequency:    1.5295136580
  - # 6
    frequency:    1.7421613569
  - # 7
    frequency:    1.8426382925
  - # 8
    frequency:    1.8775133647
  - # 9
    frequency:    1.9076718749
  - # 10
    frequency:    1.9626534447
  - # 11
    frequency:    1.9664795496
  - # 12
    frequency:    2.1809530288
  - # 13
    frequency:    2.2481234385
  - # 14
    frequency:    2.2592807929
  - # 15
    frequency:    2.2637155699
  - # 16
    frequency:    2.2925330343
  - # 17
    frequency:    2.4227418419
  - # 18
    frequency:    2.6064408893
  - # 19
    frequency:    2.7713231107
  - # 20
    frequency:    2.8740842544
  - # 21
    frequency:    3.2451111278
  - # 22
    frequency:    3.3288914606
  - # 23
    frequency:    3.3430539013
  - # 24
    frequency:    3.3758128926
  - # 25
    frequency:    3.4572145762
  - # 26
    frequency:    3.8152269763
  - # 27
    frequency:    3.9485759929
  - # 28
    frequency:    4.0822573737
  - # 29
    frequency:    4.2187975412
  - # 30
    frequency:    4.2994787015
  - # 31
    frequency:    4.5847419673
  - # 32
    frequency:    4.6720433246
  - # 33
    frequency:    4.7436906067
  - # 34
    frequency:    4.9391347467
  - # 35
    frequency:    5.0044987068
  - # 36
    frequency:    5.0652742650
  - # 37
    frequency:    5.1534420964
  - # 38
    frequency:    5.1916065390
  - # 39
    frequency:    5.9963614149
  - # 40
    frequency:    6.0388161607
  - # 41
    frequency:    6.1791600766
  - # 42
    frequency:    6.3970771962
  - # 43
    frequency:    6.5326060221
  - # 44
    frequency:    6.6004362011
  - # 45
    frequency:    6.7621222852
  - # 46
    frequency:    6.7861627084
  - # 47
    frequency:    6.7890072457
  - # 48
    frequency:    7.4098015827
  - # 49
    frequency:    8.3644144269
  - # 50
    frequency:    8.6500101326
  - # 51
    frequency:    8.6949923641
  - # 52
    frequency:    8.6989059924
  - # 53
    frequency:    8.7113202631
  - # 54
    frequency:    8.7696571793
  - # 55
    frequency:    8.8522043146
  - # 56
    frequency:    9.0206215357
  - # 57
    frequency:    9.1404225146
  - # 58
    frequency:   11.3172378284
  - # 59
    frequency:   12.0510340269
  - # 60
    frequency:   12.6785057961

- q-position: [    0.0000000,    0.0000000,    0.0306122 ]
  distance:    0.0044047
  band:
  - # 1
    frequency:   -0.9856152656
  - # 2
    frequency:    0.1110575803
  - # 3
    frequency:    0.1400767004
  - # 4
    frequency:    0.2652693824
  - # 5
    frequency:    1.5326280888
  - # 6
    frequency:    1.7394003814
  - # 7
    frequency:    1.8440483032
  - # 8
    frequency:    1.8770531982
  - # 9
    frequency:    1.9014301526
  - # 10
    frequency:    1.9603091240
  - # 11
    frequency:    1.9668488126
  - # 12
    frequency:    2.1845858046
  - # 13
    frequency:    2.2468154470
  - # 14
    frequency:    2.2657688798
  - # 15
    frequency:    2.2660047171
  - # 16
    frequency:    2.2972446649
  - # 17
    frequency:    2.4257011666
  - # 18
    frequency:    2.6167729878
  - # 19
    frequency:    2.7738047385
  - # 20
    frequency:    2.8762967430
  - # 21
    frequency:    3.2460823464
  - # 22
    frequency:    3.3298459327
  - # 23
    frequency:    3.3599296551
  - # 24
    frequency:    3.3822457231
  - # 25
    frequency:    3.4589767972
  - # 26
    frequency:    3.8183474983
  - # 27
    frequency:    3.9485986621
  - # 28
    frequency:    4.0830147087
  - # 29
    frequency:    4.2185171166
  - # 30
    frequency:    4.3021355999
  - # 31
    frequency:    4.5854262640
  - # 32
    frequency:    4.6726338856
  - # 33
    frequency:    4.7432102239
  - # 34
    frequency:    4.9397162398
  - # 35
    frequency:    5.0000482557
  - # 36
    frequency:    5.0704318729
  - # 37
    frequency:    5.1525541293
  - # 38
    frequency:    5.1940789757
  - # 39
    frequency:    5.9925706533
  - # 40
    frequency:    6.0367144008
  - # 41
    frequency:    6.1794036346
  - # 42
    frequency:    6.3877924270
  - # 43
    frequency:    6.5304578037
  - # 44
    frequency:    6.5958581553
  - # 45
    frequency:    6.7598748610
  - # 46
    frequency:    6.7853521565
  - # 47
    frequency:    6.7975104518
  - # 48
    frequency:    7.4086309797
  - # 49
    frequency:    8.3654295751
  - # 50
    frequency:    8.6484677581
  - # 51
    frequency:    8.6954473905
  - # 52
    frequency:    8.6990232818
  - # 53
    frequency:    8.7132850549
  - # 54
    frequency:    8.7716478539
  - # 55
    frequency:    8.8579516555
  - # 56
    frequency:    9.0198994813
  - # 57
    frequency:    9.1439985953
  - # 58
    frequency:   11.3192714224
  - # 59
    frequency:   12.0561323234
  - # 60
    frequency:   12.6787710701

- q-position: [    0.0000000,    0.0000000,    0.0408163 ]
  distance:    0.0058729
  band:
  - # 1
    frequency:   -0.9650165158
  - # 2
    frequency:    0.1480730082
  - # 3
    frequency:    0.1864222770
  - # 4
    frequency:    0.3530185952
  - # 5
    frequency:    1.5369041827
  - # 6
    frequency:    1.7356988500
  - # 7
    frequency:    1.8456881812
  - # 8
    frequency:    1.8764413984
  - # 9
    frequency:    1.8932403808
  - # 10
    frequency:    1.9573682925
  - # 11
    frequency:    1.9669735417
  - # 12
    frequency:    2.1891229340
  - # 13
    frequency:    2.2451177972
  - # 14
    frequency:    2.2691499993
  - # 15
    frequency:    2.2747496166
  - # 16
    frequency:    2.3032225532
  - # 17
    frequency:    2.4302576092
  - # 18
    frequency:    2.6310020923
  - # 19
    frequency:    2.7772991613
  - # 20
    frequency:    2.8795232483
  - # 21
    frequency:    3.2474607311
  - # 22
    frequency:    3.3311927707
  - # 23
    frequency:    3.3832983989
  - # 24
    frequency:    3.3911677179
  - # 25
    frequency:    3.4614448406
  - # 26
    frequency:    3.8226799111
  - # 27
    frequency:    3.9486326374
  - # 28
    frequency:    4.0840713453
  - # 29
    frequency:    4.2181998687
  - # 30
    frequency:    4.3058583400
  - # 31
    frequency:    4.5864340597
  - # 32
    frequency:    4.6734157652
  - # 33
    frequency:    4.7425385724
  - # 34
    frequency:    4.9405431523
  - # 35
    frequency:    4.9948246051
  - # 36
    frequency:    5.0766528524
  - # 37
    frequency:    5.1513121108
  - # 38
    frequency:    5.1975063988
  - # 39
    frequency:    5.9871940350
  - # 40
    frequency:    6.0337748337
  - # 41
    frequency:    6.1797389138
  - # 42
    frequency:    6.3757939123
  - # 43
    frequency:    6.5274561154
  - # 44
    frequency:    6.5894605154
  - # 45
    frequency:    6.7561947616
  - # 46
    frequency:    6.7847641536
  - # 47
    frequency:    6.8085409446
  - # 48
    frequency:    7.4070004643
  - # 49
    frequency:    8.3668515939
  - # 50
    frequency:    8.6464235387
  - # 51
    frequency:    8.6960986705
  - # 52
    frequency:    8.6992403579
  - # 53
    frequency:    8.7159600190
  - # 54
    frequency:    8.7743183237
  - # 55
    frequency:    8.8658444371
  - # 56
    frequency:    9.0188927643
  - # 57
    frequency:    9.1491533062
  - # 58
    frequency:   11.3221242549
  - # 59
    frequency:   12.0631883703
  - # 60
    frequency:   12.6791279610

- q-position: [    0.0000000,    0.0000000,    0.0510204 ]
  distance:    0.0073411
  band:
  - # 1
    frequency:   -0.9381023807
  - # 2
    frequency:    0.1852856462
  - # 3
    frequency:    0.2324711132
  - # 4
    frequency:    0.4401727343
  - # 5
    frequency:    1.5422611738
  - # 6
    frequency:    1.7311783002
  - # 7
    frequency:    1.8472852455
  - # 8
    frequency:    1.8757075439
  - # 9
    frequency:    1.8834132568
  - # 10
    frequency:    1.9540996072
  - # 11
    frequency:    1.9666716963
  - # 12
    frequency:    2.1940003192
  - # 13
    frequency:    2.2431343473
  - # 14
    frequency:    2.2743812982
  - # 15
    frequency:    2.2849975955
  - # 16
    frequency:    2.3098953743
  - # 17
    frequency:    2.4368046766
  - # 18
    frequency:    2.6489264597
  - # 19
    frequency:    2.7818279314
  - # 20
    frequency:    2.8838397533
  - # 21
    frequency:    3.2492582467
  - # 22
    frequency:    3.3329427281
  - # 23
    frequency:    3.4025022079
  - # 24
    frequency:    3.4128824904
  - # 25
    frequency:    3.4646193512
  - # 26
    frequency:    3.8281901122
  - # 27
    frequency:    3.9486805456
  - # 28
    frequency:    4.0854236718
  - # 29
    frequency:    4.2179345704
  - # 30
    frequency:    4.3106498236
  - # 31
    frequency:    4.5878131681
  - # 32
    frequency:    4.6743439595
  - # 33
    frequency:    4.7416765439
  - # 34
    frequency:    4.9416278484
  - # 35
    frequency:    4.9892233786
  - # 36
    frequency:    5.0835495201
  - # 37
    frequency:    5.1497172019
  - # 38
    frequency:    5.2018566062
  - # 39
    frequency:    5.9801727322
  - # 40
    frequency:    6.0300003205
  - # 41
    frequency:    6.1801603220
  - # 42
    frequency:    6.3618264838
  - # 43
    frequency:    6.5236066812
  - # 44
    frequency:    6.5812549484
  - # 45
    frequency:    6.7508192763
  - # 46
    frequency:    6.7846745367
  - # 47
    frequency:    6.8214681642
  - # 48
    frequency:    7.4049183166
  - # 49
    frequency:    8.3686812525
  - # 50
    frequency:    8.6439710852
  - # 51
    frequency:    8.6969597387
  - # 52
    frequency:    8.6995742725
  - # 53
    frequency:    8.7193053401
  - # 54
    frequency:    8.7775736290
  - # 55
    frequency:    8.8757191581
  - # 56
    frequency:    9.0176055392
  - # 57
    frequency:    9.1560442471
  - # 58
    frequency:   11.3258020151
  - # 59
    frequency:   12.0721221629
  - # 60
    frequency:   12.6795621200

- q-position: [    0.0000000,    0.0000000,    0.0612245 ]
  distance:    0.0088094
  band:
  - # 1
    frequency:   -0.9045002176
  - # 2
    frequency:    0.2227607856
  - # 3
    frequency:    0.2781514241
  - # 4
    frequency:    0.5265607425
  - # 5
    frequency:    1.5485997278
  - # 6
    frequency:    1.7259594524
  - # 7
    frequency:    1.8485510863
  - # 8
    frequency:    1.8722051800
  - # 9
    frequency:    1.8748860756
  - # 10
    frequency:    1.9507769484
  - # 11
    frequency:    1.9658229691
  - # 12
    frequency:    2.1985633551
  - # 13
    frequency:    2.2409677274
  - # 14
    frequency:    2.2820644827
  - # 15
    frequency:    2.2962476157
  - # 16
    frequency:    2.3166280399
  - # 17
    frequency:    2.4457772328
  - # 18
    frequency:    2.6703233338
  - # 19
    frequency:    2.7874208450
  - # 20
    frequency:    2.8892884383
  - # 21
    frequency:    3.2514836688
  - # 22
    frequency:    3.3351098797
  - # 23
    frequency:    3.4161581061
  - # 24
    frequency:    3.4482876963
  - # 25
    frequency:    3.4685007441
  - # 26
    frequency:    3.8348377961
  - # 27
    frequency:    3.9487463252
  - # 28
    frequency:    4.0870670740
  - # 29
    frequency:    4.2178563907
  - # 30
    frequency:    4.3165135119
  - # 31
    frequency:    4.5896226877
  - # 32
    frequency:    4.6753605496
  - # 33
    frequency:    4.7406252960
  - # 34
    frequency:    4.9429856787
  - # 35
    frequency:    4.9835000379
  - # 36
    frequency:    5.0908774469
  - # 37
    frequency:    5.1477709320
  - # 38
    frequency:    5.2070905471
  - # 39
    frequency:    5.9714471990
  - # 40
    frequency:    6.0253944888
  - # 41
    frequency:    6.1806608238
  - # 42
    frequency:    6.3466122929
  - # 43
    frequency:    6.5189167303
  - # 44
    frequency:    6.5712565189
  - # 45
    frequency:    6.7436632698
  - # 46
    frequency:    6.7851854093
  - # 47
    frequency:    6.8356991292
  - # 48
    frequency:    7.4023951125
  - # 49
    frequency:    8.3709194804
  - # 50
    frequency:    8.6412082705
  - # 51
    frequency:    8.6980470303
  - # 52
    frequency:    8.7000305973
  - # 53
    frequency:    8.7232863382
  - # 54
    frequency:    8.7813141921
  - # 55
    frequency:    8.8873531203
  - # 56
    frequency:    9.0160431428
  - # 57
    frequency:    9.1648856695
  - # 58
    frequency:   11.3303118571
  - # 59
    frequency:   12.0828330041
  - # 60
    frequency:   12.6800553011

- q-position: [    0.0000000,    0.0000000,    0.0714286 ]
  distance:    0.0102776
  band:
  - # 1
    frequency:   -0.8636873435
  - # 2
    frequency:    0.2606064789
  - # 3
    frequency:    0.3233927598
  - # 4
    frequency:    0.6119938014
  - # 5
    frequency:    1.5558048824
  - # 6
    frequency:    1.7201591216
  - # 7
    frequency:    1.8492058934
  - # 8
    frequency:    1.8598246628
  - # 9
    frequency:    1.8740143406
  - # 10
    frequency:    1.9476560548
  - # 11
    frequency:    1.9643528047
  - # 12
    frequency:    2.2022382306
  - # 13
    frequency:    2.2387096484
  - # 14
    frequency:    2.2927098144
  - # 15
    frequency:    2.3080779658
  - # 16
    frequency:    2.3228334062
  - # 17
    frequency:    2.4575484495
  - # 18
    frequency:    2.6949620569
  - # 19
    frequency:    2.7941176256
  - # 20
    frequency:    2.8958620972
  - # 21
    frequency:    3.2541409431
  - # 22
    frequency:    3.3377118055
  - # 23
    frequency:    3.4320322774
  - # 24
    frequency:    3.4730888903
  - # 25
    frequency:    3.4889671983
  - # 26
    frequency:    3.8425798543
  - # 27
    frequency:    3.9488356615
  - # 28
    frequency:    4.0889959579
  - # 29
    frequency:    4.2181662522
  - # 30
    frequency:    4.3234532030
  - # 31
    frequency:    4.5919319861
  - # 32
    frequency:    4.6763948163
  - # 33
    frequency:    4.7393862604
  - # 34
    frequency:    4.9446347343
  - # 35
    frequency:    4.9778237028
  - # 36
    frequency:    5.0984821074
  - # 37
    frequency:    5.1454752284
  - # 38
    frequency:    5.2131637767
  - # 39
    frequency:    5.9609697846
  - # 40
    frequency:    6.0199616945
  - # 41
    frequency:    6.1812320523
  - # 42
    frequency:    6.3307966766
  - # 43
    frequency:    6.5133949053
  - # 44
    frequency:    6.5594837399
  - # 45
    frequency:    6.7347708342
  - # 46
    frequency:    6.7862735651
  - # 47
    frequency:    6.8507187332
  - # 48
    frequency:    7.3994436697
  - # 49
    frequency:    8.3735673245
  - # 50
    frequency:    8.6382298048
  - # 51
    frequency:    8.6993792314
  - # 52
    frequency:    8.7006077305
  - # 53
    frequency:    8.7278692825
  - # 54
    frequency:    8.7854432625
  - # 55
    frequency:    8.9004591641
  - # 56
    frequency:    9.0142120941
  - # 57
    frequency:    9.1759531030
  - # 58
    frequency:   11.3356622772
  - # 59
    frequency:   12.0952010164
  - # 60
    frequency:   12.6805855106

- q-position: [    0.0000000,    0.0000000,    0.0816327 ]
  distance:    0.0117458
  band:
  - # 1
    frequency:   -0.8149296509
  - # 2
    frequency:    0.2989881992
  - # 3
    frequency:    0.3681262499
  - # 4
    frequency:    0.6962585979
  - # 5
    frequency:    1.5637492120
  - # 6
    frequency:    1.7138939484
  - # 7
    frequency:    1.8464438883
  - # 8
    frequency:    1.8490041697
  - # 9
    frequency:    1.8731308194
  - # 10
    frequency:    1.9449535799
  - # 11
    frequency:    1.9622158490
  - # 12
    frequency:    2.2047060641
  - # 13
    frequency:    2.2364359487
  - # 14
    frequency:    2.3065625702
  - # 15
    frequency:    2.3201864223
  - # 16
    frequency:    2.3280913428
  - # 17
    frequency:    2.4723144221
  - # 18
    frequency:    2.7226124443
  - # 19
    frequency:    2.8019700775
  - # 20
    frequency:    2.9035008412
  - # 21
    frequency:    3.2572286682
  - # 22
    frequency:    3.3407698087
  - # 23
    frequency:    3.4500110168
  - # 24
    frequency:    3.4783827287
  - # 25
    frequency:    3.5341751923
  - # 26
    frequency:    3.8513755326
  - # 27
    frequency:    3.9489565327
  - # 28
    frequency:    4.0912037766
  - # 29
    frequency:    4.2191590707
  - # 30
    frequency:    4.3314727360
  - # 31
    frequency:    4.5948203438
  - # 32
    frequency:    4.6773635693
  - # 33
    frequency:    4.7379611531
  - # 34
    frequency:    4.9465956952
  - # 35
    frequency:    4.9723140392
  - # 36
    frequency:    5.1062623879
  - # 37
    frequency:    5.1428324525
  - # 38
    frequency:    5.2200279600
  - # 39
    frequency:    5.9487192672
  - # 40
    frequency:    6.0137069739
  - # 41
    frequency:    6.1818644412
  - # 42
    frequency:    6.3149220140
  - # 43
    frequency:    6.5070511556
  - # 44
    frequency:    6.5459586423
  - # 45
    frequency:    6.7242303237
  - # 46
    frequency:    6.7878755553
  - # 47
    frequency:    6.8660998773
  - # 48
    frequency:    7.3960789807
  - # 49
    frequency:    8.3766258966
  - # 50
    frequency:    8.6351228494
  - # 51
    frequency:    8.7009765615
  - # 52
    frequency:    8.7013003666
  - # 53
    frequency:    8.7330180720
  - # 54
    frequency:    8.7898713255
  - # 55
    frequency:    8.9146853791
  - # 56
    frequency:    9.0121200972
  - # 57
    frequency:    9.1895828732
  - # 58
    frequency:   11.3418629609
  - # 59
    frequency:   12.1090888755
  - # 60
    frequency:   12.6811271853

- q-position: [    0.0000000,    0.0000000,    0.0918367 ]
  distance:    0.0132140
  band:
  - # 1
    frequency:   -0.7571782369
  - # 2
    frequency:    0.3381601070
  - # 3
    frequency:    0.4122847774
  - # 4
    frequency:    0.7791081373
  - # 5
    frequency:    1.5722960283
  - # 6
    frequency:    1.7072885307
  - # 7
    frequency:    1.8322086117
  - # 8
    frequency:    1.8477639022
  - # 9
    frequency:    1.8722736973
  - # 10
    frequency:    1.9428250907
  - # 11
    frequency:    1.9593849466
  - # 12
    frequency:    2.2059343412
  - # 13
    frequency:    2.2342054751
  - # 14
    frequency:    2.3235722499
  - # 15
    frequency:    2.3322102857
  - # 16
    frequency:    2.3324070784
  - # 17
    frequency:    2.4900319730
  - # 18
    frequency:    2.7530490913
  - # 19
    frequency:    2.8110447002
  - # 20
    frequency:    2.9120999270
  - # 21
    frequency:    3.2607403670
  - # 22
    frequency:    3.3443091675
  - # 23
    frequency:    3.4699710040
  - # 24
    frequency:    3.4843797978
  - # 25
    frequency:    3.5829105665
  - # 26
    frequency:    3.8611941278
  - # 27
    frequency:    3.9491198813
  - # 28
    frequency:    4.0936830629
  - # 29
    frequency:    4.2212639596
  - # 30
    frequency:    4.3405756107
  - # 31
    frequency:    4.5983778560
  - # 32
    frequency:    4.6781718253
  - # 33
    frequency:    4.7363519880
  - # 34
    frequency:    4.9488918279
  - # 35
    frequency:    4.9670625251
  - # 36
    frequency:    5.1141495142
  - # 37
    frequency:    5.1398454462
  - # 38
    frequency:    5.2276323334
  - # 39
    frequency:    5.9347151762
  - # 40
    frequency:    6.0066359888
  - # 41
    frequency:    6.1825473719
  - # 42
    frequency:    6.2994176469
  - # 43
    frequency:    6.4998966197
  - # 44
    frequency:    6.5307068614
  - # 45
    frequency:    6.7121293951
  - # 46
    frequency:    6.7899327876
  - # 47
    frequency:    6.8814975115
  - # 48
    frequency:    7.3923181304
  - # 49
    frequency:    8.3800963150
  - # 50
    frequency:    8.6319650708
  - # 51
    frequency:    8.7021015502
  - # 52
    frequency:    8.7028600228
  - # 53
    frequency:    8.7386923590
  - # 54
    frequency:    8.7945180741
  - # 55
    frequency:    8.9296246590
  - # 56
    frequency:    9.0097760520
  - # 57
    frequency:    9.2061616476
  - # 58
    frequency:   11.3489245998
  - # 59
    frequency:   12.1243437077
  - # 60
    frequency:   12.6816513982

- q-position: [    0.0000000,    0.0000000,    0.1020408 ]
  distance:    0.0146823
  band:
  - # 1
    frequency:   -0.6888832296
  - # 2
    frequency:    0.3785210013
  - # 3
    frequency:    0.4558030934
  - # 4
    frequency:    0.8602489011
  - # 5
    frequency:    1.5813024519
  - # 6
    frequency:    1.7004868635
  - # 7
    frequency:    1.8172456118
  - # 8
    frequency:    1.8453939084
  - # 9
    frequency:    1.8714798714
  - # 10
    frequency:    1.9413458917
  - # 11
    frequency:    1.9558451966
  - # 12
    frequency:    2.2060680065
  - # 13
    frequency:    2.2320614088
  - # 14
    frequency:    2.3351996850
  - # 15
    frequency:    2.3435021634
  - # 16
    frequency:    2.3447070813
  - # 17
    frequency:    2.5104425944
  - # 18
    frequency:    2.7860528354
  - # 19
    frequency:    2.8214256400
  - # 20
    frequency:    2.9215247768
  - # 21
    frequency:    3.2646651770
  - # 22
    frequency:    3.3483594152
  - # 23
    frequency:    3.4910756820
  - # 24
    frequency:    3.4917801309
  - # 25
    frequency:    3.6338501649
  - # 26
    frequency:    3.8720258781
  - # 27
    frequency:    3.9493404238
  - # 28
    frequency:    4.0964254658
  - # 29
    frequency:    4.2250985874
  - # 30
    frequency:    4.3507645049
  - # 31
    frequency:    4.6027084157
  - # 32
    frequency:    4.6787139874
  - # 33
    frequency:    4.7345610914
  - # 34
    frequency:    4.9515491873
  - # 35
    frequency:    4.9621439430
  - # 36
    frequency:    5.1220954073
  - # 37
    frequency:    5.1365175872
  - # 38
    frequency:    5.2359250606
  - # 39
    frequency:    5.9190289390
  - # 40
    frequency:    5.9987549620
  - # 41
    frequency:    6.1832693297
  - # 42
    frequency:    6.2845989106
  - # 43
    frequency:    6.4919435001
  - # 44
    frequency:    6.5137577488
  - # 45
    frequency:    6.6985441345
  - # 46
    frequency:    6.7924025882
  - # 47
    frequency:    6.8966365139
  - # 48
    frequency:    7.3881801986
  - # 49
    frequency:    8.3839796374
  - # 50
    frequency:    8.6288242980
  - # 51
    frequency:    8.7030037173