160  
19   

1    
  0.0100000000000000   0.0000000000000000   0.0000000000000000
  -0.0366144552    0.0000006690    0.0068889732
   0.0021218443    0.0000008503   -0.0002547838
  -0.0001606357    0.0000009448    0.0000055241
   0.0001876083    0.0000007337   -0.0000970835
  -0.0001179762    0.0000002456   -0.0000644288
   0.0001479589    0.0000005644   -0.0000402757
   0.0000651797    0.0000008146   -0.0000898865
   0.0000078252    0.0000006445   -0.0000245937
  -0.0012101699    0.0004969746    0.0005922474
   0.0005232006   -0.0000571150   -0.0000278052
  -0.0012101328   -0.0004984883    0.0005920794
   0.0005231707    0.0000558701   -0.0000277281
  -0.0001003848    0.0000867828   -0.0000524418
   0.0000269151   -0.0000239770    0.0000644187
  -0.0001002594   -0.0000880901   -0.0000524048
   0.0000269619    0.0000224598    0.0000644037
   0.0013817566    0.0000005430    0.0020692227
   0.0013703747    0.0000006330   -0.0019850973
   0.0000319710    0.0000010690    0.0001438223
   0.0000270998    0.0000010486   -0.0000486630
   0.0005862993    0.0000006713   -0.0020722137
   0.0005608237    0.0000006562    0.0017647491
   0.0000223492    0.0000010300   -0.0000518743
   0.0000176653    0.0000009475    0.0001579645
   0.0001012988   -0.0004667175    0.0004451166
   0.0001908156    0.0003541509   -0.0004006425
   0.0001012954    0.0004652532    0.0004452173
   0.0001908523   -0.0003557109   -0.0004007138
   0.0001038003   -0.0003440741   -0.0005448390
   0.0001878758    0.0003269185    0.0002878864
   0.0001037515    0.0003423752   -0.0005448848
   0.0001879181   -0.0003284411    0.0002878593
  -0.0000463566   -0.0007911329   -0.0000832073
   0.0000211974    0.0008093535    0.0001305649
   0.0055945642    0.0089833437    0.0006947286
   0.0036810314   -0.0040804696    0.0003507410
  -0.0000815610   -0.0000260943   -0.0000259767
  -0.0000394936    0.0001568905    0.0000006977
  -0.0000771876    0.0000884832   -0.0000191910
   0.0003079273   -0.0001226366   -0.0002634333
   0.0055946009   -0.0089858482    0.0006947274
   0.0036810393    0.0040775383    0.0003507322
  -0.0000463255    0.0007906021   -0.0000829840
   0.0000212328   -0.0008089211    0.0001305473
  -0.0000773714   -0.0000874059   -0.0000199362
   0.0003078199    0.0001215933   -0.0002637567
  -0.0000815616    0.0000260196   -0.0000258897
  -0.0000395507   -0.0001553771    0.0000004353
  -0.0002125157    0.0001748039   -0.0000286549
   0.0002772309   -0.0000519019    0.0000551877
  -0.0060003246   -0.0010050538   -0.0021513906
   0.0015492561    0.0000144126    0.0003152748
  -0.0002874616   -0.0001786824    0.0000123264
   0.0003383790   -0.0000556441    0.0000411626
  -0.0033366559   -0.0014689647   -0.0007347404
   0.0016505385    0.0000368140    0.0000267616
  -0.0060004181    0.0010034082   -0.0021512577
   0.0015493306   -0.0000175340    0.0003151456
  -0.0002123472   -0.0001767837   -0.0000290952
   0.0002772262    0.0000519693    0.0000551422
  -0.0033367587    0.0014665654   -0.0007346135
   0.0016505743   -0.0000398757    0.0000267142
  -0.0002873690    0.0001787569    0.0000122402
   0.0003383415    0.0000558554    0.0000410939
   0.0000103283   -0.0000209633   -0.0000562604
   0.0001678062   -0.0000797430   -0.0000130699
  -0.0000589076   -0.0000957157   -0.0000693993
   0.0001064843    0.0000315193    0.0005972895
  -0.0001353699    0.0000641454    0.0001632197
   0.0002957256   -0.0001835824   -0.0001583059
  -0.0011927081   -0.0007552128    0.0010546451
   0.0004349856    0.0010598472   -0.0013816786
  -0.0000590105    0.0000961594   -0.0000693004
   0.0001064895   -0.0000310815    0.0005972848
   0.0000103420    0.0000212922   -0.0000562805
   0.0001677166    0.0000800537   -0.0000129902
  -0.0011927033    0.0007555680    0.0010546454
   0.0004350018   -0.0010594787   -0.0013816847
  -0.0001353512   -0.0000638177    0.0001631993
   0.0002957163    0.0001839329   -0.0001582898
   0.0039617147    0.0004255834   -0.0009714102
  -0.0013722738    0.0003427426    0.0009213480
   0.0001254068    0.0001852269   -0.0001629625
  -0.0002788534   -0.0000077200    0.0001557174
   0.0003551978    0.0001619580    0.0000670711
  -0.0004038294    0.0001360084    0.0000547657
  -0.0000390935    0.0000831847    0.0000331840
  -0.0001646199    0.0000554677   -0.0000086013
   0.0039616836   -0.0004251989   -0.0009713792
  -0.0013722679   -0.0003424069    0.0009213400
   0.0001254312   -0.0001849315   -0.0001629773
  -0.0002788415    0.0000080729    0.0001557064
   0.0003552844   -0.0001615020    0.0000669487
  -0.0004038063   -0.0001356213    0.0000547224
  -0.0000391151   -0.0000828428    0.0000332054
  -0.0001645844   -0.0000550765   -0.0000086460
  -0.0017322415   -0.0003438949   -0.0011201064
   0.0058441953   -0.0048106950   -0.0023892895
  -0.0002913253    0.0001842242   -0.0001457468
   0.0000808166   -0.0000623490    0.0000858798
  -0.0002805979    0.0000084062    0.0000516501
   0.0001984475    0.0000964556    0.0001215866
  -0.0001164418    0.0000514924   -0.0000085542
   0.0000157413    0.0001283026    0.0000666380
  -0.0017322458    0.0003442422   -0.0011201174
   0.0058442221    0.0048110607   -0.0023892501
  -0.0002913064   -0.0001838930   -0.0001457362
   0.0000807543    0.0000626529    0.0000858072
  -0.0002806940   -0.0000080060    0.0000515714
   0.0001984280   -0.0000960500    0.0001215717
  -0.0001164192   -0.0000511329   -0.0000085401
   0.0000157081   -0.0001279364    0.0000666140
   0.0002129395   -0.0001296658    0.0000923807
   0.0000064347   -0.0000857592   -0.0000269404
   0.0006614965    0.0000651506    0.0000548850
  -0.0002004889   -0.0000864417   -0.0000551792
   0.0003409672   -0.0000167596    0.0000788086
  -0.0002067312   -0.0001882223   -0.0001752016
   0.0025299212   -0.0008149151    0.0018968219
  -0.0011981518    0.0003411608   -0.0008813809
   0.0006615861   -0.0000646410    0.0000549476
  -0.0002004435    0.0000868487   -0.0000551429
   0.0002129633    0.0001299463    0.0000924041
   0.0000064774    0.0000861394   -0.0000269047
   0.0025299129    0.0008153001    0.0018968148
  -0.0011981546   -0.0003408174   -0.0008813887
   0.0003409402    0.0000170789    0.0000787894
  -0.0002067175    0.0001885758   -0.0001751893
   0.0001164871   -0.0000025302   -0.0001241830
  -0.0000519941   -0.0000009704    0.0002765493
   0.0000251051    0.0000004834    0.0000488778
   0.0000281310   -0.0000006989    0.0000706912
   0.0105917661    0.0000001013   -0.0021483781
  -0.0035149953    0.0000003272    0.0003573532
   0.0000252528    0.0000008245    0.0000696792
  -0.0000318980    0.0000001109    0.0000080443
  -0.0002559011    0.0015156901   -0.0001648784
  -0.0002389996   -0.0014743580   -0.0000683993
  -0.0002559058   -0.0015153382   -0.0001648849
  -0.0002389976    0.0014747510   -0.0000684019
   0.0000367295    0.0000099932    0.0000241490
  -0.0000336655   -0.0001721039   -0.0000809607
   0.0000367282   -0.0000096533    0.0000241445
  -0.0000336686    0.0001724603   -0.0000809652
   0.0011806815   -0.0000005153    0.0005910226
  -0.0004439513    0.0000005123   -0.0001587219
   0.0001065567    0.0000017882   -0.0000396567
  -0.0000832681    0.0000004157   -0.0000745614
   0.0010402509   -0.0000000244    0.0015696958
  -0.0004711676    0.0000004696   -0.0001109324
   0.0001024852    0.0000003534   -0.0000472127
  -0.0000997298    0.0000003248   -0.0000583004
   0.0006997509   -0.0003047525    0.0001190253
  -0.0002700742    0.0000724026   -0.0000161338
   0.0006997503    0.0003051298    0.0001190374
  -0.0002700790   -0.0000720148   -0.0000161275
   0.0004618830    0.0001594083    0.0003202007
  -0.0003163715    0.0000939245    0.0000456263
   0.0004618842   -0.0001590478    0.0003202031
  -0.0003163759   -0.0000935097    0.0000456184

1    
 -0.0100000000000000   0.0000000000000000   0.0000000000000000
   0.0359861095    0.0000006819   -0.0072254757
  -0.0020902491    0.0000008129    0.0001533758
   0.0002097937    0.0000006675   -0.0001087514
  -0.0001418012    0.0000008724   -0.0000057414
   0.0001657954    0.0000005579   -0.0000299797
  -0.0001024137    0.0000004404   -0.0000588874
  -0.0000161617    0.0000010755   -0.0000089527
   0.0000379975    0.0000008853   -0.0000749521
   0.0011621998   -0.0004944347   -0.0004905767
  -0.0005704306    0.0000562069    0.0001309014
   0.0011622532    0.0004929935   -0.0004906325
  -0.0005704553   -0.0000575553    0.0001309441
   0.0000490064   -0.0000856260    0.0001523259
  -0.0000727811    0.0000237544    0.0000342088
   0.0000491072    0.0000842944    0.0001522595
  -0.0000726840   -0.0000252311    0.0000342869
  -0.0013083753    0.0000006364   -0.0019368783
  -0.0013396178    0.0000006283    0.0021183895
   0.0000259996    0.0000011110   -0.0000364463
   0.0000184114    0.0000011710    0.0001560046
  -0.0005256995    0.0000007389    0.0021589625
  -0.0005109132    0.0000006371   -0.0016800738
   0.0000354067    0.0000008864    0.0001517987
   0.0000280989    0.0000009738   -0.0000581271
  -0.0001436456    0.0004693645   -0.0005461497
  -0.0002465641   -0.0003542659    0.0003012630
  -0.0001434196   -0.0004706934   -0.0005461857
  -0.0002463659    0.0003528175    0.0003013352
  -0.0001476932    0.0003471240    0.0004397300
  -0.0002452952   -0.0003272619   -0.0003963604
  -0.0001475420   -0.0003484771    0.0004397719
  -0.0002452645    0.0003258750   -0.0003965858
   0.0000461117    0.0007938132    0.0000832696
  -0.0000215096   -0.0008094375   -0.0001308723
  -0.0055266596   -0.0088723483   -0.0006925992
  -0.0036904607    0.0041221362   -0.0003314884
   0.0000815132    0.0000263789    0.0000248583
   0.0000394615   -0.0001560227   -0.0000013871
   0.0000735644   -0.0000922604    0.0000204914
  -0.0003017476    0.0001179479    0.0002642213
  -0.0055266170    0.0088696530   -0.0006926453
  -0.0036904110   -0.0041256590   -0.0003313682
   0.0000460140   -0.0007918973    0.0000829824
  -0.0000214464    0.0008090846   -0.0001307128
   0.0000735350    0.0000898289    0.0000204975
  -0.0003018543   -0.0001190269    0.0002639201
   0.0000816061   -0.0000275452    0.0000251100
   0.0000395534    0.0001552277   -0.0000012029
   0.0002116397   -0.0001784589    0.0000309365
  -0.0002769293    0.0000501158   -0.0000527586
   0.0060059603    0.0009882325    0.0021465361
  -0.0015512455   -0.0000186674   -0.0003091568
   0.0002867748    0.0001798869   -0.0000129818
  -0.0003381615    0.0000539457   -0.0000407256
   0.0033471323    0.0014305234    0.0007433358
  -0.0016510417   -0.0000426419   -0.0000322195
   0.0060059124   -0.0009896972    0.0021467179
  -0.0015513343    0.0000168614   -0.0003090420
   0.0002117475    0.0001764657    0.0000305551
  -0.0002769602   -0.0000501064   -0.0000527943
   0.0033470882   -0.0014325196    0.0007435204
  -0.0016510551    0.0000397443   -0.0000322728
   0.0002867697   -0.0001788459   -0.0000129211
  -0.0003381286   -0.0000538494   -0.0000407838
   0.0001633174   -0.0001324569    0.0000495888
   0.0000053267   -0.0000734343    0.0000057730
   0.0002330866   -0.0000578385    0.0000615096
   0.0000649486   -0.0001847990   -0.0006033342
   0.0003091195   -0.0002174943   -0.0001699479
  -0.0001237595    0.0000306495    0.0001521148
   0.0013639472    0.0005973395   -0.0010618166
  -0.0002669580   -0.0012229371    0.0013903052
   0.0002330956    0.0000582327    0.0000615072
   0.0000649495    0.0001852379   -0.0006033313
   0.0001633448    0.0001327648    0.0000495633
   0.0000052776    0.0000736896    0.0000058110
   0.0013639256   -0.0005969928   -0.0010617808
  -0.0002669297    0.0012232973    0.0013902894
   0.0003090765    0.0002178789   -0.0001699101
  -0.0001237338   -0.0000302921    0.0001520940
  -0.0040757948   -0.0002165413    0.0010076837
   0.0012020002   -0.0001923707   -0.0009194816
  -0.0003011613   -0.0000242113    0.0001718299
   0.0001054421    0.0001612753   -0.0001491556
  -0.0005234951   -0.0000081567   -0.0000642999
   0.0002290575    0.0000174986   -0.0000466959
  -0.0001361280    0.0000781472   -0.0000250890
  -0.0000089807    0.0000986050    0.0000153903
  -0.0040758140    0.0002169010    0.0010076859
   0.0012019678    0.0001927116   -0.0009194512
  -0.0003010644    0.0000245700    0.0001717309
   0.0001054358   -0.0001609504   -0.0001491432
  -0.0005234958    0.0000085236   -0.0000643060
   0.0002291030   -0.0000171144   -0.0000467532
  -0.0001361785   -0.0000778127   -0.0000250279
  -0.0000090000   -0.0000982794    0.0000154171
   0.0015571110    0.0004916532    0.0011112463
  -0.0061256050    0.0051308646    0.0024773625
   0.0001165897   -0.0000225315    0.0001370414
  -0.0002560177    0.0002234640   -0.0000944145
   0.0001085951    0.0001443092   -0.0000565404
  -0.0003781542    0.0000606386   -0.0001335260
  -0.0000564479    0.0001025215    0.0000020682
  -0.0001896107    0.0000247585   -0.0000736134
   0.0015571079   -0.0004912951    0.0011112614
  -0.0061255696   -0.0051305028    0.0024774128
   0.0001165480    0.0000229030    0.0001370005
  -0.0002560678   -0.0002231670   -0.0000944818
   0.0001085664   -0.0001439545   -0.0000565570
  -0.0003781787   -0.0000602415   -0.0001335361
  -0.0000564184   -0.0001021881    0.0000020911
  -0.0001895743   -0.0000244164   -0.0000735736
  -0.0000406704   -0.0000235708   -0.0000863327
   0.0001657998   -0.0000670649    0.0000327956
  -0.0004897758   -0.0002182610   -0.0000500096
   0.0003716095   -0.0000668631    0.0000601734
  -0.0001684010   -0.0001361937   -0.0000714458
   0.0003791463    0.0000354092    0.0001812950
  -0.0023198295    0.0006746206   -0.0018918769
   0.0013743121   -0.0004974874    0.0008915672
  -0.0004897886    0.0002186600   -0.0000500266
   0.0003716383    0.0000672935    0.0000601928
  -0.0000406579    0.0000238243   -0.0000863107
   0.0001657760    0.0000673710    0.0000327775
  -0.0023198238   -0.0006742527   -0.0018918739
   0.0013743151    0.0004978058    0.0008915663
  -0.0001683691    0.0001366062   -0.0000714180
   0.0003791355   -0.0000350804    0.0001812878
  -0.0000995717   -0.0000000286    0.0002259275
   0.0000658955   -0.0000009686   -0.0001750258
  -0.0000095429    0.0000012557    0.0000545845
  -0.0000130557    0.0000009586    0.0000328684
  -0.0100035493    0.0000001029    0.0021568026
   0.0035610814    0.0000007724   -0.0002556850
  -0.0000097793   -0.0000009443    0.0000337756
   0.0000470845    0.0000006618    0.0000957307
   0.0002409794   -0.0015129163    0.0000621614
   0.0002216273    0.0014759718   -0.0000378434
   0.0002409791    0.0015133250    0.0000621750
   0.0002216300   -0.0014755757   -0.0000378350
  -0.0000520792   -0.0000101671   -0.0001289327
   0.0000167353    0.0001710337   -0.0000230697
  -0.0000520819    0.0000105813   -0.0001289359
   0.0000167331   -0.0001706353   -0.0000230835
  -0.0011689169   -0.0000006876   -0.0006985396
   0.0004587043   -0.0000004343    0.0000531441
  -0.0000913855    0.0000018251   -0.0000645278
   0.0000989344    0.0000004216   -0.0000295798
  -0.0010139044   -0.0000003374   -0.0016545175
   0.0004854853    0.0000003717    0.0000092059
  -0.0000874246   -0.0000002527   -0.0000565359
   0.0001154766    0.0000003575   -0.0000456403
  -0.0007152004    0.0003081329   -0.0000178070
   0.0002543571   -0.0000697054    0.0001184744
  -0.0007152042   -0.0003077695   -0.0000178022
   0.0002543527    0.0000701027    0.0001184772
  -0.0004790893   -0.0001625459   -0.0002156929
   0.0003004866   -0.0000927056    0.0000596109
  -0.0004790871    0.0001629152   -0.0002156891
   0.0003004821    0.0000930882    0.0000596117

1    
  0.0000000000000000   0.0100000000000000   0.0000000000000000
   0.0000723444   -0.0345714477   -0.0002388842
   0.0000225658   -0.0009055197   -0.0000511632
   0.0000271449    0.0003079152   -0.0000502505
   0.0000246549   -0.0002524921   -0.0000506091
   0.0000263180   -0.0007775146   -0.0000464277
   0.0000248219   -0.0004771973   -0.0000487032
   0.0000271409   -0.0002685932   -0.0000488620
   0.0000246913   -0.0000717927   -0.0000490567
   0.0004513947    0.0025732228    0.0000549907
  -0.0000872954    0.0002548810    0.0000442094
  -0.0005133034    0.0026093694    0.0000453810
   0.0000353008    0.0002535361    0.0000569227
   0.0000561578    0.0002368690    0.0000286116
  -0.0000425019    0.0001131705    0.0000312361
  -0.0001117753    0.0002355486    0.0000688163
  -0.0000081801    0.0001118796    0.0000658534
   0.0000305840   -0.0020631373    0.0000504366
   0.0000259769   -0.0020575824    0.0000532052
   0.0000309621   -0.0000864266    0.0000529606
   0.0000248849   -0.0002663624    0.0000529957
   0.0000292170   -0.0010627320    0.0000523923
   0.0000292688   -0.0010627172    0.0000509826
   0.0000311692   -0.0003758273    0.0000490471
   0.0000248735   -0.0001211005    0.0000488385
  -0.0003662531    0.0007784318   -0.0005147639
   0.0003000642    0.0004591962   -0.0003151913
   0.0003179526    0.0007757476    0.0004160731
  -0.0003608347    0.0004561992    0.0002173704
  -0.0004973825    0.0007775156    0.0005418702
   0.0003290511    0.0004602617    0.0002415585
   0.0004507083    0.0007778355   -0.0006468022
  -0.0003931447    0.0004610045   -0.0003481070
  -0.0002524745    0.0018907219    0.0002841384
   0.0002249630    0.0016687319    0.0001267501
   0.0084656371   -0.0001206038   -0.0010049414
  -0.0048910348   -0.0007364976   -0.0016085217
  -0.0000905522    0.0010697623    0.0000747624
   0.0001526568    0.0009653572    0.0000686725
   0.0008223649   -0.0006635668   -0.0000352908
  -0.0005200756   -0.0005637431    0.0003296286
  -0.0083823843   -0.0001233617    0.0010013699
   0.0048733415   -0.0007294293    0.0016128856
   0.0002530798    0.0018905932   -0.0002835466
  -0.0002258611    0.0016682521   -0.0001264683
  -0.0008212670   -0.0006608138    0.0000359890
   0.0005210086   -0.0005605496   -0.0003301127
   0.0000909488    0.0010693953   -0.0000763334
  -0.0001533016    0.0009652391   -0.0000701983
   0.0000772268    0.0019331518   -0.0004164067
  -0.0000259276    0.0009542661   -0.0001837069
  -0.0005063724    0.0007199684    0.0068567454
  -0.0000861606   -0.0004155610    0.0008359004
   0.0000039510    0.0017808490    0.0000971575
  -0.0000241876    0.0010126359    0.0000597836
  -0.0015337390   -0.0022376698   -0.0052789516
   0.0001581634   -0.0006476902   -0.0005755847
   0.0005015695    0.0007039949   -0.0068139252
   0.0000847904   -0.0004128868   -0.0008346359
  -0.0000770193    0.0019338609    0.0004180362
   0.0000249891    0.0009540592    0.0001859161
   0.0015275439   -0.0021974789    0.0052416636
  -0.0001597219   -0.0006428296    0.0005749349
  -0.0000040576    0.0017813704   -0.0000977769
   0.0000230368    0.0010121090   -0.0000595026
   0.0001882962   -0.0002355772    0.0000524434
  -0.0000638828   -0.0002379458    0.0001341913
  -0.0000297143    0.0001225953   -0.0000776124
   0.0007738542   -0.0000040156   -0.0010549350
   0.0002878601   -0.0002749633   -0.0001352643
   0.0000416325   -0.0003608293   -0.0000534472
  -0.0008373373    0.0002552161    0.0005996615
   0.0012439039   -0.0006449265    0.0011451325
   0.0002013807    0.0002761467    0.0000696820
  -0.0006014689    0.0001495780    0.0010475479
  -0.0000152950   -0.0000822200   -0.0000593785
   0.0002362998   -0.0000852163   -0.0001411689
   0.0010059813    0.0004062950   -0.0006071349
  -0.0010579020   -0.0004870723   -0.0011377091
  -0.0001151867   -0.0001218186    0.0001280772
   0.0001309473   -0.0002089353    0.0000465203
   0.0000530237    0.0016990733    0.0006341724
   0.0008837433    0.0004352938   -0.0005767124
  -0.0000555406   -0.0002068737    0.0000020144
  -0.0001805405   -0.0000323627    0.0001052104
  -0.0004980334    0.0005736441    0.0007380464
  -0.0000718594    0.0003198694    0.0000408088
  -0.0000000246   -0.0000461460   -0.0000994098
  -0.0001163404   -0.0000318543   -0.0000264683
  -0.0001725310    0.0014593396   -0.0005596034
  -0.0010544657    0.0002835354    0.0005827708
  -0.0001183197   -0.0003592004    0.0000049073
   0.0000075034   -0.0001852534   -0.0000985414
   0.0003260461    0.0004170551   -0.0007283508
  -0.0001014874    0.0001663848   -0.0000337900
  -0.0001738416   -0.0001988325    0.0001068269
  -0.0000563920   -0.0001846480    0.0000336370
  -0.0009191588    0.0005443018   -0.0003005927
  -0.0042109377    0.0071172653    0.0043591459
   0.0000706344   -0.0000776780    0.0001127635
  -0.0001147189   -0.0002606248    0.0000231062
  -0.0002078354    0.0003127160    0.0000650224
   0.0001097034    0.0006274589    0.0003522567
  -0.0000554065    0.0000018339   -0.0000265291
  -0.0002252770   -0.0000720501   -0.0001477239
   0.0007446457    0.0003902431    0.0002966386
   0.0038513873    0.0067767873   -0.0042069893
  -0.0002442804   -0.0002305614   -0.0001203907
  -0.0000581640   -0.0004132862   -0.0000307043
   0.0000342615    0.0001596187   -0.0000723487
  -0.0002852157    0.0004709795   -0.0003593829
  -0.0001179466   -0.0001507342    0.0000193967
   0.0000520948   -0.0002248921    0.0001408002
   0.0001926388   -0.0002793251    0.0001720296
   0.0000635082   -0.0001585821    0.0000416860
  -0.0003119112    0.0000362915   -0.0010244896
   0.0001500823    0.0000410546   -0.0001686701
   0.0001553467   -0.0004561386   -0.0000676904
  -0.0000424612   -0.0002626691   -0.0001130601
   0.0001951118    0.0022928835    0.0006225683
   0.0006625299    0.0001469008    0.0004050758
   0.0004837856    0.0001901248    0.0010287958
   0.0000213817    0.0001934663    0.0001759333
  -0.0000209052   -0.0001267681   -0.0001653731
   0.0001090191   -0.0000054029   -0.0000345217
   0.0000494209    0.0022857544   -0.0006961294
  -0.0004882609    0.0002977795   -0.0003967132
   0.0000156377   -0.0003048553    0.0000751585
   0.0002149778   -0.0001101141    0.0001200944
   0.0000077072    0.0010993116    0.0000512366
   0.0000074130    0.0008993070    0.0000508581
   0.0000076003   -0.0014407252    0.0000517901
   0.0000077113   -0.0013641329    0.0000518418
  -0.0000028235    0.0056296742    0.0000614294
   0.0000044696    0.0032822408    0.0000548519
   0.0000075543   -0.0016736668    0.0000517064
   0.0000076586   -0.0015838808    0.0000518075
   0.0004275825   -0.0012282140    0.0000054137
  -0.0004251565   -0.0010220925   -0.0001064735
  -0.0004469813   -0.0012260617   -0.0001085246
   0.0004112284   -0.0010197375    0.0000006460
   0.0000659314   -0.0002188508   -0.0001727875
  -0.0000800903   -0.0001950338   -0.0000798027
  -0.0000821305   -0.0002185200    0.0000683341
   0.0000635782   -0.0001937534   -0.0000239744
   0.0000068515    0.0036961290   -0.0000524250
   0.0000077186    0.0009785573   -0.0000514381
   0.0000075874   -0.0018743706   -0.0000519813
   0.0000077487   -0.0013457182   -0.0000519402
   0.0000088553    0.0043878475   -0.0000418727
   0.0000080697    0.0009459788   -0.0000523996
   0.0000076441   -0.0016225756   -0.0000519071
   0.0000077674   -0.0014263535   -0.0000519609
   0.0000133161   -0.0012523377    0.0005070353
  -0.0000228638   -0.0002123399    0.0001332468
  -0.0000300907   -0.0012527628   -0.0004066319
   0.0000069561   -0.0002118115   -0.0000295284
  -0.0001954956   -0.0009056988   -0.0003454830
  -0.0000556691   -0.0001687506    0.0000145412
   0.0001787274   -0.0009048311    0.0004507795
   0.0000399158   -0.0001677173    0.0000889642

1    
  0.0000000000000000   0.0000000000000000   0.0100000000000000
   0.0070261353    0.0000005785   -0.0342605245
  -0.0001837875    0.0000005171   -0.0001822112
   0.0000811687    0.0000007109   -0.0002651109
  -0.0000227402    0.0000006494   -0.0000011828
   0.0000115511    0.0000007141    0.0023079997
   0.0000319007    0.0000006164    0.0000653049
  -0.0000151087    0.0000006889    0.0001340207
   0.0000481819    0.0000008408   -0.0000741886
   0.0005115711   -0.0000009047   -0.0012175003
  -0.0000999305   -0.0000107023    0.0000410339
   0.0005114691   -0.0000006237   -0.0012173294
  -0.0000998244    0.0000093977    0.0000411756
  -0.0001266590   -0.0000250137    0.0006326768
  -0.0000071401   -0.0000144086    0.0000963507
  -0.0001265254    0.0000235655    0.0006326745
  -0.0000069762    0.0000130139    0.0000963964
   0.0020888569    0.0000007811    0.0010961274
  -0.0020009065    0.0000008055    0.0010983536
   0.0001310124    0.0000008995    0.0000634429
  -0.0000675214    0.0000009156    0.0000626867
  -0.0016908654    0.0000006718    0.0008130888
   0.0021405300    0.0000006515    0.0008197061
  -0.0000787667    0.0000008005    0.0000360795
   0.0001253760    0.0000008498    0.0000368697
   0.0004694459   -0.0005903078    0.0002760327
  -0.0003709521   -0.0002909979    0.0000388538
   0.0004693934    0.0005888805    0.0002760440
  -0.0003709044    0.0002895568    0.0000387411
  -0.0005179488    0.0004604931    0.0002710566
   0.0003231247    0.0002687117    0.0000361347
  -0.0005179819   -0.0004619131    0.0002710544
   0.0003231420   -0.0002701829    0.0000360180
  -0.0000576169    0.0001171478   -0.0002453228
   0.0000228484   -0.0002179312   -0.0002935546
  -0.0006108147   -0.0002127219   -0.0060501008
  -0.0017963555    0.0005337497   -0.0039363635
   0.0000103896    0.0000104843    0.0003149532
   0.0000334013    0.0000076983    0.0003152308
   0.0000240454   -0.0001302188    0.0016813430
   0.0003206404   -0.0001535731    0.0015936978
  -0.0006108437    0.0002104140   -0.0060501871
  -0.0017964009   -0.0005355984   -0.0039365300
  -0.0000576735   -0.0001161230   -0.0002454734
   0.0000228219    0.0002186416   -0.0002936318
   0.0000240744    0.0001273286    0.0016813617
   0.0003206281    0.0001509237    0.0015937469
   0.0000103658   -0.0000102849    0.0003149461
   0.0000334341   -0.0000079226    0.0003153407
   0.0000160797   -0.0008372101    0.0001345030
  -0.0000193257   -0.0000741087   -0.0000595113
  -0.0009231476    0.0060781548    0.0045718532
  -0.0001414642    0.0002105442    0.0001752995
   0.0000640344    0.0007939793   -0.0000902094
  -0.0000222568    0.0000466818   -0.0000777973
   0.0004969850   -0.0068991918    0.0043959904
  -0.0001019790   -0.0000788240   -0.0000744703
  -0.0009231274   -0.0060808958    0.0045718729
  -0.0001415209   -0.0002131599    0.0001753359
   0.0000160412    0.0008374951    0.0001345084
  -0.0000192876    0.0000745326   -0.0000594429
   0.0004969762    0.0068971201    0.0043961169
  -0.0001020247    0.0000769278   -0.0000743483
   0.0000640179   -0.0007929470   -0.0000901148
  -0.0000223401   -0.0000450592   -0.0000775750
   0.0000289063   -0.0000138690   -0.0001009820
   0.0002885007    0.0000321906   -0.0002476096
   0.0000783438   -0.0001023310   -0.0002752640
   0.0011232987   -0.0005651003   -0.0012105440
   0.0001082707   -0.0000768862    0.0001131305
  -0.0001085106   -0.0001670042    0.0002308899
   0.0003227294   -0.0001061979    0.0002397036
  -0.0017460729    0.0010162373    0.0012167826
   0.0000783513    0.0001026832   -0.0002752668
   0.0011233014    0.0005654515   -0.0012105412
   0.0000289008    0.0000142188   -0.0001009787
   0.0002885084   -0.0000318534   -0.0002476170
   0.0003227525    0.0001065832    0.0002396915
  -0.0017460752   -0.0010158441    0.0012167886
   0.0001082732    0.0000772907    0.0001131291
  -0.0001085180    0.0001673885    0.0002309002
  -0.0007214647    0.0001930225    0.0035536037
   0.0003434550    0.0000393121    0.0001422572
  -0.0002567502    0.0002292195    0.0001959106
  -0.0000704404    0.0000887023    0.0000280164
   0.0011003179    0.0004730899   -0.0015164090
  -0.0002108009    0.0002008837   -0.0002226223
   0.0000778500   -0.0000353429   -0.0001959299
  -0.0001065236    0.0000648421   -0.0000356435
  -0.0007214557   -0.0001926713    0.0035535872
   0.0003434720   -0.0000389517    0.0001422258
  -0.0002567336   -0.0002288496    0.0001958907
  -0.0000704193   -0.0000883397    0.0000279958
   0.0011003019   -0.0004727418   -0.0015163913
  -0.0002108260   -0.0002005250   -0.0002226019
   0.0000778495    0.0000357091   -0.0001959251
  -0.0001065491   -0.0000644792   -0.0000356151
  -0.0000304928    0.0002134472    0.0005632638
  -0.0018671702    0.0037194647    0.0042083446
   0.0000060119    0.0000230179    0.0000731516
  -0.0000171947    0.0001966794    0.0001630046
  -0.0000552960    0.0001015001   -0.0001791950
  -0.0011786707    0.0005314800   -0.0016807858
  -0.0000875053    0.0000927393   -0.0000156118
  -0.0002634384   -0.0000268979   -0.0002113409
  -0.0000305041   -0.0002130952    0.0005632521
  -0.0018671896   -0.0037191049    0.0042083287
   0.0000059841   -0.0000226437    0.0000731249
  -0.0000172062   -0.0001963175    0.0001629999
  -0.0000552690   -0.0001011460   -0.0001791549
  -0.0011786601   -0.0005311232   -0.0016807656
  -0.0000874761   -0.0000923534   -0.0000155832
  -0.0002634285    0.0000272636   -0.0002113312
  -0.0000551729    0.0000268093   -0.0002420737
   0.0000668011   -0.0000791856   -0.0000499489
  -0.0007926788   -0.0004200381   -0.0012152419
   0.0000219957   -0.0000537096   -0.0002183523
   0.0001704906   -0.0001959707    0.0001954461
   0.0001689847   -0.0000338539    0.0001233123
   0.0018360816    0.0005547199    0.0019825159
   0.0004027787   -0.0002176882    0.0004345211
  -0.0007926861    0.0004203839   -0.0012152485
   0.0000219981    0.0000540672   -0.0002183501
  -0.0000551792   -0.0000264648   -0.0002420778
   0.0000668018    0.0000795201   -0.0000499464
   0.0018360884   -0.0005543406    0.0019825139
   0.0004027809    0.0002180853    0.0004345150
   0.0001705139    0.0001963580    0.0001954718
   0.0001689765    0.0000342432    0.0001233082
   0.0000039268    0.0000002873   -0.0004966481
  -0.0000128983    0.0000001355   -0.0005067685
   0.0000157049    0.0000002736   -0.0000474212
  -0.0000044644    0.0000005761   -0.0000536648
  -0.0015704860   -0.0000001185    0.0018752305
  -0.0001350080   -0.0000004343    0.0012623068
   0.0000054381   -0.0000003297    0.0001555433
   0.0000204827   -0.0000001229    0.0001504014
   0.0000830889   -0.0000411980    0.0006535812
   0.0001026372    0.0005160016    0.0004091340