  20  160
1 1
     3.630028236861810    -0.000000000000000    -0.705722445472337
     0.000000000000000     3.457144774999691     0.000000000000000
    -0.692463074867614    -0.000000000000000     3.450226888921780
1 2
    -0.210604671476366    -0.000000000000000     0.020407982066393
    -0.000000000000000     0.090551973693305    -0.000000000000000
     0.020528700647561    -0.000000000000000     0.013072706411840
1 3
     0.018521470084181    -0.000000000000000    -0.005713776786302
    -0.000000000000000    -0.030791519934553     0.000000000000000
    -0.005661272478949     0.000000000000000     0.021409832530627
1 4
    -0.016470475542991    -0.000000000000000     0.004567102652091
     0.000000000000000     0.025249211080143     0.000000000000000
     0.004531959755577     0.000000000000000    -0.005024066164035
1 5
     0.014188581310457     0.000000000000000     0.001722453520373
     0.000000000000000     0.077751459741998     0.000000000000000
     0.001346282577209    -0.000000000000000    -0.235230710035843
1 6
    -0.012518628199793     0.000000000000000    -0.000930588659807
    -0.000000000000000     0.047719732787471    -0.000000000000000
    -0.000975411090080    -0.000000000000000    -0.011495757160419
1 7
    -0.004067068375375     0.000000000000000     0.004046689415506
    -0.000000000000000     0.026859319201074    -0.000000000000000
     0.003994406181677    -0.000000000000000    -0.018366114059808
1 8
     0.001508616047848     0.000000000000000    -0.002517919725648
    -0.000000000000000     0.007179265951763     0.000000000000000
    -0.002582713120614     0.000000000000000     0.002470783401413
1 9
     0.118618893919768    -0.049572279559292    -0.054138397961774
    -0.048234903685743    -0.259129611736224    -0.000480487062522
    -0.053741025407635     0.000291536535284     0.126998693620003
1 10
    -0.054681429303607     0.005668683097280     0.007934472218374
     0.006129810645624    -0.025420853729034     0.000635662235578
     0.007723132466626     0.001119441644013     0.000973119885379
1 11
     0.118618893919768     0.049572279559292    -0.054138397961774
     0.048234903685743    -0.259129611736224     0.000480487062522
    -0.053741025407635    -0.000291536535284     0.126998693620003
1 12
    -0.054681429303607    -0.005668683097280     0.007934472218374
    -0.006129810645624    -0.025420853729034    -0.000635662235578
     0.007723132466626    -0.001119441644013     0.000973119885379
1 13
     0.007468943104926    -0.008619830293112     0.010235802192406
    -0.008396656489820    -0.023620876915726     0.002010230342517
     0.010157720406960     0.002474535825941    -0.058406152418036
1 14
    -0.004983553987235     0.002385557437155    -0.001508169778491
     0.001716092041356    -0.011252504931702     0.001730867882047
    -0.001563624302521     0.001452186388827    -0.004731055629138
1 15
     0.007468943104926     0.008619830293112     0.010235802192406
     0.008396656489820    -0.023620876915726    -0.002010230342517
     0.010157720406960    -0.002474535825941    -0.058406152418036
1 16
    -0.004983553987235    -0.002385557437155    -0.001508169778491
    -0.001716092041356    -0.011252504931702    -0.001730867882047
    -0.001563624302521    -0.001452186388827    -0.004731055629138
1 17
    -0.134506592287106    -0.000000000000000    -0.200305050166998
    -0.000000000000000     0.206313733320515    -0.000000000000000
    -0.205035100497712     0.000000000000000    -0.103856376735659
1 18
    -0.135499625736208    -0.000000000000000     0.205174339081969
    -0.000000000000000     0.205758238441216     0.000000000000000
     0.201341596894518     0.000000000000000    -0.104255298970888
1 19
    -0.000298566411369     0.000000000000000    -0.009013427557376
    -0.000000000000000     0.008642655007041    -0.000000000000000
    -0.010249364867007     0.000000000000000    -0.001011863612925
1 20
    -0.000434418485032     0.000000000000000     0.010233378905499
     0.000000000000000     0.026636241114502    -0.000000000000000
     0.009019543231380     0.000000000000000    -0.000950554840211
1 21
    -0.055599938299077     0.000000000000000     0.211558807760651
     0.000000000000000     0.106273201329830     0.000000000000000
     0.172823273324029     0.000000000000000    -0.076291138956066
1 22
    -0.053586847375477     0.000000000000000    -0.172241145298309
     0.000000000000000     0.106271720029517    -0.000000000000000
    -0.212650754927758     0.000000000000000    -0.077326159771576
1 23
     0.000652874823582    -0.000000000000000     0.010183649302140
     0.000000000000000     0.037582725938163     0.000000000000000
     0.010758388953748     0.000000000000000     0.001355318907436
1 24
     0.000521679518931    -0.000000000000000    -0.010804579689372
     0.000000000000000     0.012110052978890    -0.000000000000000
    -0.010284690370939    -0.000000000000000     0.001280782058285
1 25
    -0.012241485240921     0.046800714841699    -0.049566732731250
     0.034210282078054    -0.077708971234304     0.046541848484283
    -0.049122408394991     0.059253557945796    -0.032662545493384
1 26
    -0.021864946829600    -0.035423630382534     0.035098863414425
    -0.033044946605078    -0.045769772076921     0.026628088239874
     0.034279713930932     0.029231260400654    -0.008940514467754
1 27
    -0.012241485240921    -0.046800714841699    -0.049566732731250
    -0.034210282078054    -0.077708971234304    -0.046541848484283
    -0.049122408394991    -0.059253557945796    -0.032662545493384
1 28
    -0.021864946829600     0.035423630382534     0.035098863414425
     0.033044946605078    -0.045769772076921    -0.026628088239874
     0.034279713930932    -0.029231260400654    -0.008940514467754
1 29
    -0.012569676725129     0.034551258912419     0.049230639419416
     0.047404541487720    -0.077767551989453    -0.059433621573995
     0.049764957698126    -0.046018494538959    -0.032434285632269
1 30
    -0.021658838942665    -0.032712415366040    -0.034217300980988
    -0.036109788603460    -0.046063312405951    -0.029483272671391
    -0.035258429873807    -0.026891906646827    -0.008953363849807
1 31
    -0.012569676725129    -0.034551258912419     0.049230639419416
    -0.047404541487720    -0.077767551989453     0.059433621573995
     0.049764957698126     0.046018494538959    -0.032434285632269
1 32
    -0.021658838942665     0.032712415366040    -0.034217300980988
     0.036109788603460    -0.046063312405951     0.029483272671391
    -0.035258429873807     0.026891906646827    -0.008953363849807
1 33
     0.004620195933366     0.079186138995267     0.008311082062497
     0.025277713694855    -0.189065754126080    -0.028384249105353
     0.005797102667257    -0.011683815642888     0.024533595527110
1 34
    -0.002134655975762    -0.080919917086231    -0.013067431092010
    -0.022541203315474    -0.166849197914738    -0.012660921767344
    -0.002343660621219     0.021937028538137     0.029379176862786
1 35
    -0.556061043432667    -0.892779825819402    -0.069367511454427
    -0.842401067123880     0.012198270273699     0.100315568606197
     0.060739256531418     0.019477510133123     0.605027927724913
1 36
    -0.368573558193289     0.410145079663590    -0.034108246272438
     0.488218814828194     0.073296340406088     0.161070366393575
     0.180213361130939    -0.054459620266981     0.394494144662006
1 37
     0.008156046472076     0.002650949743481     0.002545866808444
     0.009075049589699    -0.106957881151458    -0.007554787923566
    -0.001005063814272    -0.001068835319123    -0.031635145516962
1 38
     0.003951478936151    -0.015587949806048    -0.000093073343152
    -0.015297918219774    -0.096529813887562    -0.006943544328125
    -0.003410464101344    -0.000780457604897    -0.031637392382987
1 39
     0.007541459623582    -0.008949463211317     0.002002903756863
    -0.082181594676209     0.066219029129337     0.003563989822970
    -0.002146903020213     0.012756325936357    -0.168440822019365
1 40
    -0.030483725974744     0.012030118821489     0.026383283074043
     0.052054212014208     0.056214639663724    -0.032987066680128
    -0.032264078943967     0.015060825559351    -0.159486676003333
1 41
    -0.556061043432668     0.892779825819402    -0.069367511454427
     0.842401067123880     0.012198270273699    -0.100315568606197
     0.060739256531418    -0.019477510133123     0.605027927724913
1 42
    -0.368573558193289    -0.410145079663590    -0.034108246272438
    -0.488218814828194     0.073296340406088    -0.161070366393575
     0.180213361130939     0.054459620266981     0.394494144662006
1 43
     0.004620195933366    -0.079186138995267     0.008311082062497
    -0.025277713694855    -0.189065754126080     0.028384249105353
     0.005797102667257     0.011683815642888     0.024533595527110
1 44
    -0.002134655975762     0.080919917086231    -0.013067431092010
     0.022541203315474    -0.166849197914738     0.012660921767344
    -0.002343660621219    -0.021937028538137     0.029379176862786
1 45
     0.007541459623582     0.008949463211317     0.002002903756863
     0.082181594676209     0.066219029129337    -0.003563989822970
    -0.002146903020213    -0.012756325936357    -0.168440822019365
1 46
    -0.030483725974744    -0.012030118821489     0.026383283074043
    -0.052054212014208     0.056214639663724     0.032987066680128
    -0.032264078943967    -0.015060825559351    -0.159486676003333
1 47
     0.008156046472076    -0.002650949743481     0.002545866808444
    -0.009075049589699    -0.106957881151458     0.007554787923566
    -0.001005063814272     0.001068835319123    -0.031635145516962
1 48
     0.003951478936151     0.015587949806048    -0.000093073343152
     0.015297918219774    -0.096529813887562     0.006943544328125
    -0.003410464101344     0.000780457604897    -0.031637392382987
1 49
     0.021206254227484    -0.017662803123907     0.002981040284156
    -0.007712303453185    -0.193350634547753     0.041722144996072
    -0.001605208948866     0.083835705700674    -0.013441813111612
1 50
    -0.027708665653758     0.005102336071184    -0.005397069314831
     0.002545835486338    -0.095416266562152     0.018481147121951
     0.001930038708454     0.007512036985172     0.006009976963596
1 51
     0.600315386563621     0.099659792678348     0.214897556268929
     0.050397096273624    -0.071198165043373    -0.683533530101690
     0.092118305482725    -0.603859002095693    -0.455180796076660
1 52
    -0.155029162675803    -0.001686884381025    -0.031215480136766
     0.008547550164974     0.041422389629086    -0.083526814302928
     0.014157061373940    -0.021454023225003    -0.017739763963436
1 53
     0.028709379216582     0.017904300649119    -0.001261735102094
    -0.000400431423847    -0.178110973470167    -0.009746718112319
    -0.006418819928704    -0.079435201214889     0.009027365699262
1 54
    -0.033825264634194     0.005482365566433    -0.004094145834503
     0.002361222679916    -0.101237245051153    -0.005964311498045
     0.002231647170464    -0.004513596344149     0.007787451303110
1 55
     0.334190877290060     0.144964328696126     0.073905250495187
     0.153064143316914     0.221757433325806     0.526030761994249
    -0.049657800449314     0.693387645037288    -0.442035530710901
1 56
    -0.165080239578293    -0.003976895954656    -0.002949202324123
    -0.015894265164276     0.064525990354808     0.057525980391783
     0.010064885297902     0.007609535441294     0.007675489926474
1 57
     0.600315386563622    -0.099659792678348     0.214897556268930
    -0.050397096273624    -0.071198165043373     0.683533530101690
     0.092118305482725     0.603859002095693    -0.455180796076660
1 58
    -0.155029162675803     0.001686884381025    -0.031215480136766
    -0.008547550164974     0.041422389629086     0.083526814302928
     0.014157061373940     0.021454023225003    -0.017739763963436
1 59
     0.021206254227484     0.017662803123907     0.002981040284156
     0.007712303453185    -0.193350634547753    -0.041722144996072
    -0.001605208948866    -0.083835705700674    -0.013441813111612
1 60
    -0.027708665653758    -0.005102336071184    -0.005397069314831
    -0.002545835486338    -0.095416266562152    -0.018481147121951
     0.001930038708454    -0.007512036985172     0.006009976963596
1 61
     0.334190877290060    -0.144964328696126     0.073905250495187
    -0.153064143316914     0.221757433325806    -0.526030761994249
    -0.049657800449314    -0.693387645037288    -0.442035530710901
1 62
    -0.165080239578293     0.003976895954656    -0.002949202324123
     0.015894265164276     0.064525990354808    -0.057525980391783
     0.010064885297902    -0.007609535441294     0.007675489926474
1 63
     0.028709379216582    -0.017904300649119    -0.001261735102094
     0.000400431423847    -0.178110973470167     0.009746718112319
    -0.006418819928704     0.079435201214889     0.009027365699262
1 64
    -0.033825264634194    -0.005482365566433    -0.004094145834503
    -0.002361222679916    -0.101237245051153     0.005964311498045
     0.002231647170464     0.004513596344149     0.007787451303110
1 65
     0.007649799705183    -0.005574154588419     0.005292327546247
    -0.010179560182603     0.015889857427373    -0.005591093289366
     0.005769924701135    -0.006292131020556     0.009808140826114
1 66
    -0.008122963430429     0.000316820746186     0.000941104577884
     0.015009127499205     0.016158107223015    -0.013768008883876
    -0.020210793373290    -0.010855674371811     0.024447386372925
1 67
     0.014602508692193     0.001895096528516     0.006542912336574
     0.011554749671192    -0.019937099733782     0.007364718273813
     0.000720930431051     0.002548803630434     0.027297369892631
1 68
    -0.002076892370222    -0.010815942037476    -0.060030994497356
    -0.068766153164740    -0.007278118947435     0.105124148133089
    -0.103531126212568     0.048645693052598     0.120787100236278
1 69
     0.022222926109637    -0.014083408897474    -0.016656925806029
    -0.020152338632265     0.019839096488226     0.013167073992539
    -0.002187652008448     0.000035762197343    -0.011651262827113
1 70
    -0.020973381312742     0.010711419548874     0.015520110063894
     0.004465740372648     0.028488232327300     0.004998376600866
     0.019539973036613     0.009072820525208    -0.023483198524576
1 71
     0.127832106780947     0.067627830046655    -0.105822198405709
     0.092165928914433    -0.033075555655758    -0.060339822800744
    -0.023508924042780     0.003064858770460    -0.024522753979586
1 72
    -0.035096875929079    -0.114139005010087     0.138598948822377
    -0.115090294544498     0.056599938423139    -0.114142076699055
     0.184130202008423    -0.109893221766443    -0.122432257195397
1 73
     0.014602508692193    -0.001895096528516     0.006542912336574
    -0.011554749671192    -0.019937099733782    -0.007364718273813
     0.000720930431051    -0.002548803630434     0.027297369892631
1 74
    -0.002076892370222     0.010815942037476    -0.060030994497356
     0.068766153164740    -0.007278118947435    -0.105124148133089
    -0.103531126212568    -0.048645693052598     0.120787100236278
1 75
     0.007649799705183     0.005574154588419     0.005292327546247
     0.010179560182603     0.015889857427373     0.005591093289366
     0.005769924701135     0.006292131020556     0.009808140826114
1 76
    -0.008122963430429    -0.000316820746186     0.000941104577884
    -0.015009127499205     0.016158107223015     0.013768008883876
    -0.020210793373290     0.010855674371811     0.024447386372925
1 77
     0.127832106780947    -0.067627830046655    -0.105822198405709
    -0.092165928914433    -0.033075555655758     0.060339822800744
    -0.023508924042780    -0.003064858770460    -0.024522753979586
1 78
    -0.035096875929079     0.114139005010087     0.138598948822377
     0.115090294544498     0.056599938423139     0.114142076699055
     0.184130202008423     0.109893221766443    -0.122432257195397
1 79
     0.022222926109637     0.014083408897474    -0.016656925806029
     0.020152338632265     0.019839096488226    -0.013167073992539
    -0.002187652008448    -0.000035762197343    -0.011651262827113
1 80
    -0.020973381312742    -0.010711419548874     0.015520110063894
    -0.004465740372648     0.028488232327300    -0.004998376600866
     0.019539973036613    -0.009072820525208    -0.023483198524576
1 81
    -0.401875179823713    -0.032105615110934     0.098953977394574
    -0.011277733901485    -0.157920645104949    -0.059688789780519
     0.065814112036440    -0.007409277953136    -0.350989687696160
1 82
     0.128712739953549    -0.026755795387325    -0.092040520944438
    -0.096910446359195    -0.035941460008767     0.057974162155684
    -0.043175899535908     0.003719359216301    -0.013816535742121
1 83
    -0.021326592422852    -0.010473493344978     0.016737512349096
    -0.003138954727972     0.028303704578078     0.000144646130298
     0.016889965248208    -0.014886281682727    -0.019191260793266
1 84
     0.019214320152891     0.008450464608135    -0.015243066020888
     0.009402193107718     0.010880807044576    -0.010187588038978
    -0.001629405261482    -0.001186839527390    -0.002499050818374
1 85
    -0.043936825498236    -0.008503507263749    -0.006565643127952
     0.041203975490801    -0.049534959806413    -0.073319860265461
    -0.119045172913065    -0.039884950067086     0.152268734754580
1 86
     0.031644904018616    -0.005925419409216    -0.005073430166108
    -0.001481399587592    -0.024312708009618    -0.003729939315165
     0.012540336372803    -0.012471117081718     0.022548731226105
1 87
    -0.004852443565879    -0.000251689766271    -0.002912658752359
    -0.008690850337016     0.012248925661743     0.010311836999249
    -0.016593684426807     0.011634203783790     0.020020590153693
1 88
     0.007780591019464     0.002158505532141     0.001201367485753
     0.002997416463376     0.010825113034077     0.003005263789468
     0.002008582206616     0.001208331831998     0.003848577210498
1 89
    -0.401875179823713     0.032105615110934     0.098953977394574
     0.011277733901485    -0.157920645104949     0.059688789780519
     0.065814112036440     0.007409277953136    -0.350989687696160
1 90
     0.128712739953549     0.026755795387325    -0.092040520944438
     0.096910446359195    -0.035941460008767    -0.057974162155684
    -0.043175899535908    -0.003719359216301    -0.013816535742121
1 91
    -0.021326592422852     0.010473493344978     0.016737512349096
     0.003138954727972     0.028303704578078    -0.000144646130298
     0.016889965248208     0.014886281682727    -0.019191260793266
1 92
     0.019214320152891    -0.008450464608135    -0.015243066020888
    -0.009402193107718     0.010880807044576     0.010187588038978
    -0.001629405261482     0.001186839527390    -0.002499050818374
1 93
    -0.043936825498236     0.008503507263749    -0.006565643127952
    -0.041203975490801    -0.049534959806413     0.073319860265461
    -0.119045172913064     0.039884950067086     0.152268734754580
1 94
     0.031644904018616     0.005925419409216    -0.005073430166108
     0.001481399587592    -0.024312708009618     0.003729939315165
     0.012540336372803     0.012471117081718     0.022548731226105
1 95
    -0.004852443565879     0.000251689766271    -0.002912658752359
     0.008690850337016     0.012248925661743    -0.010311836999249
    -0.016593684426807    -0.011634203783790     0.020020590153693
1 96
     0.007780591019464    -0.002158505532141     0.001201367485753
    -0.002997416463376     0.010825113034077    -0.003005263789468
     0.002008582206616    -0.001208331831998     0.003848577210498
1 97
     0.164467656512420     0.041777136740230     0.111568288424269
     0.083190225169174    -0.046727245324465     0.029861564549017
    -0.005569123574073    -0.013614379296968    -0.056514196937440
1 98
    -0.598489800022127     0.497078077090641     0.243332873686650
     0.403116249919421    -0.694702627366817    -0.428306760413173
     0.175187066622171    -0.360299595621647    -0.419729202887318
1 99
     0.020394236732570    -0.010338792933586     0.014138121634983
    -0.015745738186942     0.015411968668629    -0.011657709422116
    -0.009394872565684     0.005784961809055    -0.007776808106079
1 100
    -0.016841407933142     0.014290822013518    -0.009014583421746
     0.002827746032253     0.033695550576312    -0.002690526839695
    -0.006933147843616    -0.012044898543811    -0.016651860407599
1 101
     0.019461335090748     0.006796286654739    -0.005407972812935
     0.012104847410281    -0.023616732890320    -0.006868552880071
    -0.003203868761826    -0.002483927453959     0.017524790484231
1 102
    -0.028830209914289    -0.001790638199728    -0.012755508718939
    -0.019745954910920    -0.054921918630654    -0.035581978263214
     0.109273085580540    -0.045591633403639     0.167884784641163
1 103
     0.002999867562116     0.002552106029688     0.000531340630585
    -0.003127003325951     0.007445012972687     0.002296288747651
     0.000055047867931    -0.001586022489805     0.001202005809196
1 104
    -0.010265855633332    -0.005176601897067    -0.007010975944573
     0.013868592283642     0.014847111043721     0.014426209260764
     0.017696496908083     0.010380041004390     0.020804854436317
1 105
     0.164467656512420    -0.041777136740230     0.111568288424269
    -0.083190225169174    -0.046727245324465    -0.029861564549017
    -0.005569123574073     0.013614379296968    -0.056514196937440
1 106
    -0.598489800022127    -0.497078077090641     0.243332873686650
    -0.403116249919421    -0.694702627366817     0.428306760413173
     0.175187066622171     0.360299595621648    -0.419729202887318
1 107
     0.020394236732570     0.010338792933586     0.014138121634983
     0.015745738186942     0.015411968668629     0.011657709422116
    -0.009394872565684    -0.005784961809055    -0.007776808106079
1 108
    -0.016841407933142    -0.014290822013518    -0.009014583421746
    -0.002827746032253     0.033695550576312     0.002690526839695
    -0.006933147843616     0.012044898543811    -0.016651860407599
1 109
     0.019461335090748    -0.006796286654739    -0.005407972812935
    -0.012104847410281    -0.023616732890320     0.006868552880071
    -0.003203868761826     0.002483927453959     0.017524790484231
1 110
    -0.028830209914289     0.001790638199728    -0.012755508718939
     0.019745954910920    -0.054921918630654     0.035581978263214
     0.109273085580540     0.045591633403639     0.167884784641163
1 111
     0.002999867562116    -0.002552106029688     0.000531340630585
     0.003127003325951     0.007445012972687    -0.002296288747651
     0.000055047867931     0.001586022489805     0.001202005809196
1 112
    -0.010265855633332     0.005176601897067    -0.007010975944573
    -0.013868592283642     0.014847111043721    -0.014426209260764
     0.017696496908083    -0.010380041004390     0.020804854436317
1 113
    -0.012680775732460     0.005305426813725    -0.008935705235773
    -0.010677199803978     0.020304661575715    -0.016870135138263
     0.014166977164652    -0.010340947655249     0.024554702969918
1 114
     0.007966593627553     0.000936567373311     0.002985455973544
     0.002275542943476     0.008199251594625    -0.003810385684256
     0.001987624480483     0.000258565553907     0.005329447128025
1 115
    -0.057566173838192    -0.014167815160442    -0.005246718780170
     0.039784837019863    -0.011320817378364     0.102664266875189
     0.087818426422320     0.034152792665920     0.121995337857843
1 116
     0.028604505371754     0.000978343221942     0.005767208022505
    -0.006435031234775    -0.011726044147932     0.017230172752283
     0.006509046645199    -0.002268549077263     0.022256681150707
1 117
    -0.025466937203166    -0.005974034909118    -0.007511545112224
    -0.006985451408201     0.038049694598606     0.007142446191035
    -0.008437954105433     0.011975418427520    -0.019267928726227
1 118
     0.029293262408761     0.011182193585733     0.017824341085354
     0.012871948112669     0.018639162550111     0.011657725744754
    -0.008271143331759    -0.004285875268710    -0.012060665928519
1 119
    -0.242487185664414     0.074477210514412    -0.189434688984406
    -0.007284542987601    -0.228931897565869    -0.065934885315788
    -0.175144890705903    -0.062494235040638    -0.200129123471683
1 120
     0.128623341925958    -0.041931783934675     0.088647575266636
    -0.057539541437417    -0.022234014833760    -0.040089452727605
    -0.031644980598893     0.014230657681911    -0.043222419984416
1 121
    -0.057566173838192     0.014167815160442    -0.005246718780170
    -0.039784837019863    -0.011320817378364    -0.102664266875189
     0.087818426422320    -0.034152792665920     0.121995337857843
1 122
     0.028604505371754    -0.000978343221942     0.005767208022505
     0.006435031234775    -0.011726044147932    -0.017230172752283
     0.006509046645199     0.002268549077263     0.022256681150707
1 123
    -0.012680775732460    -0.005305426813725    -0.008935705235773
     0.010677199803978     0.020304661575715     0.016870135138263
     0.014166977164652     0.010340947655249     0.024554702969918
1 124
     0.007966593627553    -0.000936567373311     0.002985455973544
    -0.002275542943476     0.008199251594625     0.003810385684256
     0.001987624480483    -0.000258565553907     0.005329447128025
1 125
    -0.242487185664414    -0.074477210514412    -0.189434688984407
     0.007284542987601    -0.228931897565869     0.065934885315788
    -0.175144890705903     0.062494235040638    -0.200129123471683
1 126
     0.128623341925958     0.041931783934675     0.088647575266636
     0.057539541437417    -0.022234014833760     0.040089452727605
    -0.031644980598892    -0.014230657681911    -0.043222419984416
1 127
    -0.025466937203166     0.005974034909118    -0.007511545112224
     0.006985451408201     0.038049694598606    -0.007142446191035
    -0.008437954105433    -0.011975418427520    -0.019267928726227
1 128
     0.029293262408761    -0.011182193585733     0.017824341085354
    -0.012871948112669     0.018639162550111    -0.011657725744754
    -0.008271143331759     0.004285875268710    -0.012060665928519
1 129
    -0.010802941324763    -0.000000000000000     0.017505527910446
     0.000000000000000    -0.109931159717322     0.000000000000000
     0.000299047097951    -0.000000000000000     0.054860579017605
1 130
     0.005894479013014    -0.000000000000000    -0.022578754195952
     0.000000000000000    -0.089930699756335    -0.000000000000000
     0.002092422188041    -0.000000000000000     0.055804847027345
1 131
    -0.001732398248542    -0.000000000000000     0.000285332567684
    -0.000000000000000     0.144072515623240    -0.000000000000000
    -0.000808920430954    -0.000000000000000     0.009943987908456
1 132
    -0.002059337034839     0.000000000000000    -0.001891138686774
     0.000000000000000     0.136413289852273    -0.000000000000000
     0.001231481621843     0.000000000000000     0.010565020674606
1 133
    -1.029765771285255    -0.000000000000000     0.215259034266031
     0.000000000000000    -0.562967418358397    -0.000000000000000
     0.156930219913831     0.000000000000000    -0.181691006071858
1 134
     0.353803836187291    -0.000000000000000    -0.030651909149141
     0.000000000000000    -0.328224077654090     0.000000000000000
     0.013702817244146    -0.000000000000000    -0.121230934961315
1 135
    -0.001751603207580    -0.000000000000000    -0.001795182370980
     0.000000000000000     0.167366679062405    -0.000000000000000
     0.000213864627461    -0.000000000000000    -0.010374970331037
1 136
     0.003949126764706     0.000000000000000     0.004384323034252
     0.000000000000000     0.158388075578184    -0.000000000000000
    -0.001271092378161    -0.000000000000000    -0.009867179716879
1 137
     0.024844133459719    -0.151431740384050     0.011352491523326
    -0.043728191588624     0.122713789320381    -0.005696910837642
    -0.009288602416763     0.004143891170043    -0.070627859407048
1 138
     0.023031365941228     0.147516413150135     0.001528070556961
     0.041819241051269     0.102091501419083     0.005355977025573
    -0.011050332630929    -0.051819760737789    -0.046289348562626
1 139
     0.024844133459719     0.151431740384050     0.011352491523326
     0.043728191588624     0.122713789320381     0.005696910837642
    -0.009288602416763    -0.004143891170043    -0.070627859407048
1 140
     0.023031365941228    -0.147516413150135     0.001528070556961
    -0.041819241051269     0.102091501419083    -0.005355977025573
    -0.011050332630929     0.051819760737789    -0.046289348562626
1 141
    -0.004440469872996    -0.001009872752312    -0.007654052035322
    -0.007403096870458     0.021868541056099     0.012056079713286
    -0.003743770415909     0.004622805957321     0.033550116143373
1 142
     0.002520065159822     0.017155833413817     0.002894317527732
     0.007183424940005     0.019439361841039     0.002791414533295
     0.005102399417163     0.008333163569085     0.027334787493388
1 143
    -0.004440469872996     0.001009872752312    -0.007654052035322
     0.007403096870458     0.021868541056099    -0.012056079713286
    -0.003743770415909    -0.004622805957321     0.033550116143373
1 144
     0.002520065159822    -0.017155833413817     0.002894317527732
    -0.007183424940005     0.019439361841039    -0.002791414533295
     0.005102399417163    -0.008333163569085     0.027334787493388
1 145
    -0.117479922008180    -0.000000000000000    -0.064478112571239
    -0.000000000000000    -0.369612902698943     0.000000000000000
    -0.038672643908907    -0.000000000000000     0.367727341077190
1 146
     0.045132778005444    -0.000000000000000     0.010593300747130