phonopy:
  version: "2.19.1"
  frequency_unit_conversion_factor: 15.633304
  symmetry_tolerance: 1.00000e-05

space_group:
  type: "Pnma"
  number: 62
  Hall_symbol: "-P 2ac 2n"

supercell_matrix:
- [   2,   0,   0 ]
- [   0,   2,   0 ]
- [   0,   0,   2 ]

primitive_cell:
  lattice:
  - [     7.072995341167000,     0.000000000000000,     0.000000000000000 ] # a
  - [     0.000000000000000,     9.927137044808999,     0.000000000000000 ] # b
  - [     0.000000000000000,     0.000000000000000,     6.949939268379000 ] # c
  points:
  - symbol: Ba # 1
    coordinates: [  0.050585012233000,  0.750000000000000,  0.011164160695000 ]
    mass: 137.327000
  - symbol: Ba # 2
    coordinates: [  0.949414987767000,  0.250000000000000,  0.988835839305000 ]
    mass: 137.327000
  - symbol: Ba # 3
    coordinates: [  0.550585012233001,  0.750000000000000,  0.488835839305001 ]
    mass: 137.327000
  - symbol: Ba # 4
    coordinates: [  0.449414987767001,  0.250000000000000,  0.511164160694999 ]
    mass: 137.327000
  - symbol: Zr # 5
    coordinates: [  0.500000000000000,  0.000000000000000,  0.000000000000000 ]
    mass: 91.224000
  - symbol: Zr # 6
    coordinates: [  0.500000000000000,  0.500000000000000,  0.000000000000000 ]
    mass: 91.224000
  - symbol: Zr # 7
    coordinates: [  0.000000000000000,  0.000000000000000,  0.500000000000000 ]
    mass: 91.224000
  - symbol: Zr # 8
    coordinates: [  0.000000000000000,  0.500000000000000,  0.500000000000000 ]
    mass: 91.224000
  - symbol: S  # 9
    coordinates: [  0.709801039296000,  0.033469022605000,  0.709553673634000 ]
    mass: 32.060000
  - symbol: S  # 10
    coordinates: [  0.709801039296000,  0.466530977395000,  0.709553673634000 ]
    mass: 32.060000
  - symbol: S  # 11
    coordinates: [  0.290198960704000,  0.966530977395000,  0.290446326366001 ]
    mass: 32.060000
  - symbol: S  # 12
    coordinates: [  0.290198960704000,  0.533469022605000,  0.290446326366001 ]
    mass: 32.060000
  - symbol: S  # 13
    coordinates: [  0.790198960704000,  0.966530977395000,  0.209553673633999 ]
    mass: 32.060000
  - symbol: S  # 14
    coordinates: [  0.790198960704000,  0.533469022605000,  0.209553673633999 ]
    mass: 32.060000
  - symbol: S  # 15
    coordinates: [  0.209801039296000,  0.033469022605000,  0.790446326366001 ]
    mass: 32.060000
  - symbol: S  # 16
    coordinates: [  0.209801039296000,  0.466530977395000,  0.790446326366001 ]
    mass: 32.060000
  - symbol: S  # 17
    coordinates: [  0.494559474301000,  0.750000000000000,  0.936303549096001 ]
    mass: 32.060000
  - symbol: S  # 18
    coordinates: [  0.505440525699001,  0.250000000000000,  0.063696450904000 ]
    mass: 32.060000
  - symbol: S  # 19
    coordinates: [  0.994559474301000,  0.750000000000000,  0.563696450903999 ]
    mass: 32.060000
  - symbol: S  # 20
    coordinates: [  0.005440525699000,  0.250000000000000,  0.436303549096001 ]
    mass: 32.060000
  reciprocal_lattice: # without 2pi
  - [     0.141382816157066,     0.000000000000000,     0.000000000000000 ] # a*
  - [     0.000000000000000,     0.100733977529091,     0.000000000000000 ] # b*
  - [     0.000000000000000,     0.000000000000000,     0.143886149415697 ] # c*

unit_cell:
  lattice:
  - [     7.072995341167000,    -0.000000000000000,     0.000000000000000 ] # a
  - [     0.000000000000000,     9.927137044808999,     0.000000000000000 ] # b
  - [     0.000000000000000,     0.000000000000000,     6.949939268379000 ] # c
  points:
  - symbol: Ba # 1
    coordinates: [  0.050585012233000,  0.750000000000000,  0.011164160695000 ]
    mass: 137.327000
    reduced_to: 1
  - symbol: Ba # 2
    coordinates: [ -0.050585012233000,  0.250000000000000, -0.011164160695000 ]
    mass: 137.327000
    reduced_to: 2
  - symbol: Ba # 3
    coordinates: [  0.550585012233001,  0.750000000000000,  0.488835839305001 ]
    mass: 137.327000
    reduced_to: 3
  - symbol: Ba # 4
    coordinates: [  0.449414987767001,  0.250000000000000,  0.511164160694999 ]
    mass: 137.327000
    reduced_to: 4
  - symbol: Zr # 5
    coordinates: [  0.500000000000000,  0.000000000000000,  0.000000000000000 ]
    mass: 91.224000
    reduced_to: 5
  - symbol: Zr # 6
    coordinates: [  0.500000000000000,  0.500000000000000,  0.000000000000000 ]
    mass: 91.224000
    reduced_to: 6
  - symbol: Zr # 7
    coordinates: [  0.000000000000000,  0.000000000000000,  0.500000000000000 ]
    mass: 91.224000
    reduced_to: 7
  - symbol: Zr # 8
    coordinates: [  0.000000000000000,  0.500000000000000,  0.500000000000000 ]
    mass: 91.224000
    reduced_to: 8
  - symbol: S  # 9
    coordinates: [  0.709801039296000,  0.033469022605000,  0.709553673634000 ]
    mass: 32.060000
    reduced_to: 9
  - symbol: S  # 10
    coordinates: [  0.709801039296000,  0.466530977395000,  0.709553673634000 ]
    mass: 32.060000
    reduced_to: 10
  - symbol: S  # 11
    coordinates: [  0.290198960704000,  0.966530977395000,  0.290446326366001 ]
    mass: 32.060000
    reduced_to: 11
  - symbol: S  # 12
    coordinates: [  0.290198960704000,  0.533469022605000,  0.290446326366001 ]
    mass: 32.060000
    reduced_to: 12
  - symbol: S  # 13
    coordinates: [  0.790198960704000,  0.966530977395000,  0.209553673633999 ]
    mass: 32.060000
    reduced_to: 13
  - symbol: S  # 14
    coordinates: [  0.790198960704000,  0.533469022605000,  0.209553673633999 ]
    mass: 32.060000
    reduced_to: 14
  - symbol: S  # 15
    coordinates: [  0.209801039296000,  0.033469022605000,  0.790446326366001 ]
    mass: 32.060000
    reduced_to: 15
  - symbol: S  # 16
    coordinates: [  0.209801039296000,  0.466530977395000,  0.790446326366001 ]
    mass: 32.060000
    reduced_to: 16
  - symbol: S  # 17
    coordinates: [  0.494559474301000,  0.750000000000000,  0.936303549096001 ]
    mass: 32.060000
    reduced_to: 17
  - symbol: S  # 18
    coordinates: [  0.505440525699001,  0.250000000000000,  0.063696450904000 ]
    mass: 32.060000
    reduced_to: 18
  - symbol: S  # 19
    coordinates: [ -0.005440525699000,  0.750000000000000,  0.563696450903999 ]
    mass: 32.060000
    reduced_to: 19
  - symbol: S  # 20
    coordinates: [  0.005440525699000,  0.250000000000000,  0.436303549096001 ]
    mass: 32.060000
    reduced_to: 20

supercell:
  lattice:
  - [    14.145990682334000,     0.000000000000000,     0.000000000000000 ] # a
  - [     0.000000000000000,    19.854274089617999,     0.000000000000000 ] # b
  - [     0.000000000000000,     0.000000000000000,    13.899878536757999 ] # c
  points:
  - symbol: Ba # 1
    coordinates: [  0.025292506116500,  0.375000000000000,  0.005582080347500 ]
    mass: 137.327000
    reduced_to: 1
  - symbol: Ba # 2
    coordinates: [  0.525292506116500,  0.375000000000000,  0.005582080347500 ]
    mass: 137.327000
    reduced_to: 1
  - symbol: Ba # 3
    coordinates: [  0.025292506116500,  0.875000000000000,  0.005582080347500 ]
    mass: 137.327000
    reduced_to: 1
  - symbol: Ba # 4
    coordinates: [  0.525292506116500,  0.875000000000000,  0.005582080347500 ]
    mass: 137.327000
    reduced_to: 1
  - symbol: Ba # 5
    coordinates: [  0.025292506116500,  0.375000000000000,  0.505582080347500 ]
    mass: 137.327000
    reduced_to: 1
  - symbol: Ba # 6
    coordinates: [  0.525292506116500,  0.375000000000000,  0.505582080347500 ]
    mass: 137.327000
    reduced_to: 1
  - symbol: Ba # 7
    coordinates: [  0.025292506116500,  0.875000000000000,  0.505582080347500 ]
    mass: 137.327000
    reduced_to: 1
  - symbol: Ba # 8
    coordinates: [  0.525292506116500,  0.875000000000000,  0.505582080347500 ]
    mass: 137.327000
    reduced_to: 1
  - symbol: Ba # 9
    coordinates: [  0.974707493883500,  0.125000000000000,  0.994417919652500 ]
    mass: 137.327000
    reduced_to: 9
  - symbol: Ba # 10
    coordinates: [  0.474707493883500,  0.125000000000000,  0.994417919652500 ]
    mass: 137.327000
    reduced_to: 9
  - symbol: Ba # 11
    coordinates: [  0.974707493883500,  0.625000000000000,  0.994417919652500 ]
    mass: 137.327000
    reduced_to: 9
  - symbol: Ba # 12
    coordinates: [  0.474707493883500,  0.625000000000000,  0.994417919652500 ]
    mass: 137.327000
    reduced_to: 9
  - symbol: Ba # 13
    coordinates: [  0.974707493883500,  0.125000000000000,  0.494417919652500 ]
    mass: 137.327000
    reduced_to: 9
  - symbol: Ba # 14
    coordinates: [  0.474707493883500,  0.125000000000000,  0.494417919652500 ]
    mass: 137.327000
    reduced_to: 9
  - symbol: Ba # 15
    coordinates: [  0.974707493883500,  0.625000000000000,  0.494417919652500 ]
    mass: 137.327000
    reduced_to: 9
  - symbol: Ba # 16
    coordinates: [  0.474707493883500,  0.625000000000000,  0.494417919652500 ]
    mass: 137.327000
    reduced_to: 9
  - symbol: Ba # 17
    coordinates: [  0.275292506116500,  0.375000000000000,  0.244417919652500 ]
    mass: 137.327000
    reduced_to: 17
  - symbol: Ba # 18
    coordinates: [  0.775292506116500,  0.375000000000000,  0.244417919652500 ]
    mass: 137.327000
    reduced_to: 17
  - symbol: Ba # 19
    coordinates: [  0.275292506116500,  0.875000000000000,  0.244417919652500 ]
    mass: 137.327000
    reduced_to: 17
  - symbol: Ba # 20
    coordinates: [  0.775292506116500,  0.875000000000000,  0.244417919652500 ]
    mass: 137.327000
    reduced_to: 17
  - symbol: Ba # 21
    coordinates: [  0.275292506116500,  0.375000000000000,  0.744417919652500 ]
    mass: 137.327000
    reduced_to: 17
  - symbol: Ba # 22
    coordinates: [  0.775292506116500,  0.375000000000000,  0.744417919652500 ]
    mass: 137.327000
    reduced_to: 17
  - symbol: Ba # 23
    coordinates: [  0.275292506116500,  0.875000000000000,  0.744417919652500 ]
    mass: 137.327000
    reduced_to: 17
  - symbol: Ba # 24
    coordinates: [  0.775292506116500,  0.875000000000000,  0.744417919652500 ]
    mass: 137.327000
    reduced_to: 17
  - symbol: Ba # 25
    coordinates: [  0.224707493883500,  0.125000000000000,  0.255582080347500 ]
    mass: 137.327000
    reduced_to: 25
  - symbol: Ba # 26
    coordinates: [  0.724707493883500,  0.125000000000000,  0.255582080347500 ]
    mass: 137.327000
    reduced_to: 25
  - symbol: Ba # 27
    coordinates: [  0.224707493883500,  0.625000000000000,  0.255582080347500 ]
    mass: 137.327000
    reduced_to: 25
  - symbol: Ba # 28
    coordinates: [  0.724707493883500,  0.625000000000000,  0.255582080347500 ]
    mass: 137.327000
    reduced_to: 25
  - symbol: Ba # 29
    coordinates: [  0.224707493883500,  0.125000000000000,  0.755582080347500 ]
    mass: 137.327000
    reduced_to: 25
  - symbol: Ba # 30
    coordinates: [  0.724707493883500,  0.125000000000000,  0.755582080347500 ]
    mass: 137.327000
    reduced_to: 25
  - symbol: Ba # 31
    coordinates: [  0.224707493883500,  0.625000000000000,  0.755582080347500 ]
    mass: 137.327000
    reduced_to: 25
  - symbol: Ba # 32
    coordinates: [  0.724707493883500,  0.625000000000000,  0.755582080347500 ]
    mass: 137.327000
    reduced_to: 25
  - symbol: Zr # 33
    coordinates: [  0.250000000000000,  0.000000000000000,  0.000000000000000 ]
    mass: 91.224000
    reduced_to: 33
  - symbol: Zr # 34
    coordinates: [  0.750000000000000,  0.000000000000000,  0.000000000000000 ]
    mass: 91.224000
    reduced_to: 33
  - symbol: Zr # 35
    coordinates: [  0.250000000000000,  0.500000000000000,  0.000000000000000 ]
    mass: 91.224000
    reduced_to: 33
  - symbol: Zr # 36
    coordinates: [  0.750000000000000,  0.500000000000000,  0.000000000000000 ]
    mass: 91.224000
    reduced_to: 33
  - symbol: Zr # 37
    coordinates: [  0.250000000000000,  0.000000000000000,  0.500000000000000 ]
    mass: 91.224000
    reduced_to: 33
  - symbol: Zr # 38
    coordinates: [  0.750000000000000,  0.000000000000000,  0.500000000000000 ]
    mass: 91.224000
    reduced_to: 33
  - symbol: Zr # 39
    coordinates: [  0.250000000000000,  0.500000000000000,  0.500000000000000 ]
    mass: 91.224000
    reduced_to: 33
  - symbol: Zr # 40
    coordinates: [  0.750000000000000,  0.500000000000000,  0.500000000000000 ]
    mass: 91.224000
    reduced_to: 33
  - symbol: Zr # 41
    coordinates: [  0.250000000000000,  0.250000000000000,  0.000000000000000 ]
    mass: 91.224000
    reduced_to: 41
  - symbol: Zr # 42
    coordinates: [  0.750000000000000,  0.250000000000000,  0.000000000000000 ]
    mass: 91.224000
    reduced_to: 41
  - symbol: Zr # 43
    coordinates: [  0.250000000000000,  0.750000000000000,  0.000000000000000 ]
    mass: 91.224000
    reduced_to: 41
  - symbol: Zr # 44
    coordinates: [  0.750000000000000,  0.750000000000000,  0.000000000000000 ]
    mass: 91.224000
    reduced_to: 41
  - symbol: Zr # 45
    coordinates: [  0.250000000000000,  0.250000000000000,  0.500000000000000 ]
    mass: 91.224000
    reduced_to: 41
  - symbol: Zr # 46
    coordinates: [  0.750000000000000,  0.250000000000000,  0.500000000000000 ]
    mass: 91.224000
    reduced_to: 41
  - symbol: Zr # 47
    coordinates: [  0.250000000000000,  0.750000000000000,  0.500000000000000 ]
    mass: 91.224000
    reduced_to: 41
  - symbol: Zr # 48
    coordinates: [  0.750000000000000,  0.750000000000000,  0.500000000000000 ]
    mass: 91.224000
    reduced_to: 41
  - symbol: Zr # 49
    coordinates: [  0.000000000000000,  0.000000000000000,  0.250000000000000 ]
    mass: 91.224000
    reduced_to: 49
  - symbol: Zr # 50
    coordinates: [  0.500000000000000,  0.000000000000000,  0.250000000000000 ]
    mass: 91.224000
    reduced_to: 49
  - symbol: Zr # 51
    coordinates: [  0.000000000000000,  0.500000000000000,  0.250000000000000 ]
    mass: 91.224000
    reduced_to: 49
  - symbol: Zr # 52
    coordinates: [  0.500000000000000,  0.500000000000000,  0.250000000000000 ]
    mass: 91.224000
    reduced_to: 49
  - symbol: Zr # 53
    coordinates: [  0.000000000000000,  0.000000000000000,  0.750000000000000 ]
    mass: 91.224000
    reduced_to: 49
  - symbol: Zr # 54
    coordinates: [  0.500000000000000,  0.000000000000000,  0.750000000000000 ]
    mass: 91.224000
    reduced_to: 49
  - symbol: Zr # 55
    coordinates: [  0.000000000000000,  0.500000000000000,  0.750000000000000 ]
    mass: 91.224000
    reduced_to: 49
  - symbol: Zr # 56
    coordinates: [  0.500000000000000,  0.500000000000000,  0.750000000000000 ]
    mass: 91.224000
    reduced_to: 49
  - symbol: Zr # 57
    coordinates: [  0.000000000000000,  0.250000000000000,  0.250000000000000 ]
    mass: 91.224000
    reduced_to: 57
  - symbol: Zr # 58
    coordinates: [  0.500000000000000,  0.250000000000000,  0.250000000000000 ]
    mass: 91.224000
    reduced_to: 57
  - symbol: Zr # 59
    coordinates: [  0.000000000000000,  0.750000000000000,  0.250000000000000 ]
    mass: 91.224000
    reduced_to: 57
  - symbol: Zr # 60
    coordinates: [  0.500000000000000,  0.750000000000000,  0.250000000000000 ]
    mass: 91.224000
    reduced_to: 57
  - symbol: Zr # 61
    coordinates: [  0.000000000000000,  0.250000000000000,  0.750000000000000 ]
    mass: 91.224000
    reduced_to: 57
  - symbol: Zr # 62
    coordinates: [  0.500000000000000,  0.250000000000000,  0.750000000000000 ]
    mass: 91.224000
    reduced_to: 57
  - symbol: Zr # 63
    coordinates: [  0.000000000000000,  0.750000000000000,  0.750000000000000 ]
    mass: 91.224000
    reduced_to: 57
  - symbol: Zr # 64
    coordinates: [  0.500000000000000,  0.750000000000000,  0.750000000000000 ]
    mass: 91.224000
    reduced_to: 57
  - symbol: S  # 65
    coordinates: [  0.354900519648000,  0.016734511302500,  0.354776836817000 ]
    mass: 32.060000
    reduced_to: 65
  - symbol: S  # 66
    coordinates: [  0.854900519648000,  0.016734511302500,  0.354776836817000 ]
    mass: 32.060000
    reduced_to: 65
  - symbol: S  # 67
    coordinates: [  0.354900519648000,  0.516734511302500,  0.354776836817000 ]
    mass: 32.060000
    reduced_to: 65
  - symbol: S  # 68
    coordinates: [  0.854900519648000,  0.516734511302500,  0.354776836817000 ]
    mass: 32.060000
    reduced_to: 65
  - symbol: S  # 69
    coordinates: [  0.354900519648000,  0.016734511302500,  0.854776836817000 ]
    mass: 32.060000
    reduced_to: 65
  - symbol: S  # 70
    coordinates: [  0.854900519648000,  0.016734511302500,  0.854776836817000 ]
    mass: 32.060000
    reduced_to: 65
  - symbol: S  # 71
    coordinates: [  0.354900519648000,  0.516734511302500,  0.854776836817000 ]
    mass: 32.060000
    reduced_to: 65
  - symbol: S  # 72
    coordinates: [  0.854900519648000,  0.516734511302500,  0.854776836817000 ]
    mass: 32.060000
    reduced_to: 65
  - symbol: S  # 73
    coordinates: [  0.354900519648000,  0.233265488697500,  0.354776836817000 ]
    mass: 32.060000
    reduced_to: 73
  - symbol: S  # 74
    coordinates: [  0.854900519648000,  0.233265488697500,  0.354776836817000 ]
    mass: 32.060000
    reduced_to: 73
  - symbol: S  # 75
    coordinates: [  0.354900519648000,  0.733265488697500,  0.354776836817000 ]
    mass: 32.060000
    reduced_to: 73
  - symbol: S  # 76
    coordinates: [  0.854900519648000,  0.733265488697500,  0.354776836817000 ]
    mass: 32.060000
    reduced_to: 73
  - symbol: S  # 77
    coordinates: [  0.354900519648000,  0.233265488697500,  0.854776836817000 ]
    mass: 32.060000
    reduced_to: 73
  - symbol: S  # 78
    coordinates: [  0.854900519648000,  0.233265488697500,  0.854776836817000 ]
    mass: 32.060000
    reduced_to: 73
  - symbol: S  # 79
    coordinates: [  0.354900519648000,  0.733265488697500,  0.854776836817000 ]
    mass: 32.060000
    reduced_to: 73
  - symbol: S  # 80
    coordinates: [  0.854900519648000,  0.733265488697500,  0.854776836817000 ]
    mass: 32.060000
    reduced_to: 73
  - symbol: S  # 81
    coordinates: [  0.145099480352000,  0.483265488697500,  0.145223163183000 ]
    mass: 32.060000
    reduced_to: 81
  - symbol: S  # 82
    coordinates: [  0.645099480352000,  0.483265488697500,  0.145223163183000 ]
    mass: 32.060000
    reduced_to: 81
  - symbol: S  # 83
    coordinates: [  0.145099480352000,  0.983265488697500,  0.145223163183000 ]
    mass: 32.060000
    reduced_to: 81
  - symbol: S  # 84
    coordinates: [  0.645099480352000,  0.983265488697500,  0.145223163183000 ]
    mass: 32.060000
    reduced_to: 81
  - symbol: S  # 85
    coordinates: [  0.145099480352000,  0.483265488697500,  0.645223163183000 ]
    mass: 32.060000
    reduced_to: 81
  - symbol: S  # 86
    coordinates: [  0.645099480352000,  0.483265488697500,  0.645223163183000 ]
    mass: 32.060000
    reduced_to: 81
  - symbol: S  # 87
    coordinates: [  0.145099480352000,  0.983265488697500,  0.645223163183000 ]
    mass: 32.060000
    reduced_to: 81
  - symbol: S  # 88
    coordinates: [  0.645099480352000,  0.983265488697500,  0.645223163183000 ]
    mass: 32.060000
    reduced_to: 81
  - symbol: S  # 89
    coordinates: [  0.145099480352000,  0.266734511302500,  0.145223163183000 ]
    mass: 32.060000
    reduced_to: 89
  - symbol: S  # 90
    coordinates: [  0.645099480352000,  0.266734511302500,  0.145223163183000 ]
    mass: 32.060000
    reduced_to: 89
  - symbol: S  # 91
    coordinates: [  0.145099480352000,  0.766734511302500,  0.145223163183000 ]
    mass: 32.060000
    reduced_to: 89
  - symbol: S  # 92
    coordinates: [  0.645099480352000,  0.766734511302500,  0.145223163183000 ]
    mass: 32.060000
    reduced_to: 89
  - symbol: S  # 93
    coordinates: [  0.145099480352000,  0.266734511302500,  0.645223163183000 ]
    mass: 32.060000
    reduced_to: 89
  - symbol: S  # 94
    coordinates: [  0.645099480352000,  0.266734511302500,  0.645223163183000 ]
    mass: 32.060000
    reduced_to: 89
  - symbol: S  # 95
    coordinates: [  0.145099480352000,  0.766734511302500,  0.645223163183000 ]
    mass: 32.060000
    reduced_to: 89
  - symbol: S  # 96
    coordinates: [  0.645099480352000,  0.766734511302500,  0.645223163183000 ]
    mass: 32.060000
    reduced_to: 89
  - symbol: S  # 97
    coordinates: [  0.395099480352000,  0.483265488697500,  0.104776836817000 ]
    mass: 32.060000
    reduced_to: 97
  - symbol: S  # 98
    coordinates: [  0.895099480352000,  0.483265488697500,  0.104776836817000 ]
    mass: 32.060000
    reduced_to: 97
  - symbol: S  # 99
    coordinates: [  0.395099480352000,  0.983265488697500,  0.104776836817000 ]
    mass: 32.060000
    reduced_to: 97
  - symbol: S  # 100
    coordinates: [  0.895099480352000,  0.983265488697500,  0.104776836817000 ]
    mass: 32.060000
    reduced_to: 97
  - symbol: S  # 101
    coordinates: [  0.395099480352000,  0.483265488697500,  0.604776836817000 ]
    mass: 32.060000
    reduced_to: 97
  - symbol: S  # 102
    coordinates: [  0.895099480352000,  0.483265488697500,  0.604776836817000 ]
    mass: 32.060000
    reduced_to: 97
  - symbol: S  # 103
    coordinates: [  0.395099480352000,  0.983265488697500,  0.604776836817000 ]
    mass: 32.060000
    reduced_to: 97
  - symbol: S  # 104
    coordinates: [  0.895099480352000,  0.983265488697500,  0.604776836817000 ]
    mass: 32.060000
    reduced_to: 97
  - symbol: S  # 105
    coordinates: [  0.395099480352000,  0.266734511302500,  0.104776836817000 ]
    mass: 32.060000
    reduced_to: 105
  - symbol: S  # 106
    coordinates: [  0.895099480352000,  0.266734511302500,  0.104776836817000 ]
    mass: 32.060000
    reduced_to: 105
  - symbol: S  # 107
    coordinates: [  0.395099480352000,  0.766734511302500,  0.104776836817000 ]
    mass: 32.060000
    reduced_to: 105
  - symbol: S  # 108
    coordinates: [  0.895099480352000,  0.766734511302500,  0.104776836817000 ]
    mass: 32.060000
    reduced_to: 105
  - symbol: S  # 109
    coordinates: [  0.395099480352000,  0.266734511302500,  0.604776836817000 ]
    mass: 32.060000
    reduced_to: 105
  - symbol: S  # 110
    coordinates: [  0.895099480352000,  0.266734511302500,  0.604776836817000 ]
    mass: 32.060000
    reduced_to: 105
  - symbol: S  # 111
    coordinates: [  0.395099480352000,  0.766734511302500,  0.604776836817000 ]
    mass: 32.060000
    reduced_to: 105
  - symbol: S  # 112
    coordinates: [  0.895099480352000,  0.766734511302500,  0.604776836817000 ]
    mass: 32.060000
    reduced_to: 105
  - symbol: S  # 113
    coordinates: [  0.104900519648000,  0.016734511302500,  0.395223163183000 ]
    mass: 32.060000
    reduced_to: 113
  - symbol: S  # 114
    coordinates: [  0.604900519648000,  0.016734511302500,  0.395223163183000 ]
    mass: 32.060000
    reduced_to: 113
  - symbol: S  # 115
    coordinates: [  0.104900519648000,  0.516734511302500,  0.395223163183000 ]
    mass: 32.060000
    reduced_to: 113
  - symbol: S  # 116
    coordinates: [  0.604900519648000,  0.516734511302500,  0.395223163183000 ]
    mass: 32.060000
    reduced_to: 113
  - symbol: S  # 117
    coordinates: [  0.104900519648000,  0.016734511302500,  0.895223163183000 ]
    mass: 32.060000
    reduced_to: 113
  - symbol: S  # 118
    coordinates: [  0.604900519648000,  0.016734511302500,  0.895223163183000 ]
    mass: 32.060000
    reduced_to: 113
  - symbol: S  # 119
    coordinates: [  0.104900519648000,  0.516734511302500,  0.895223163183000 ]
    mass: 32.060000
    reduced_to: 113
  - symbol: S  # 120
    coordinates: [  0.604900519648000,  0.516734511302500,  0.895223163183000 ]
    mass: 32.060000
    reduced_to: 113
  - symbol: S  # 121
    coordinates: [  0.104900519648000,  0.233265488697500,  0.395223163183000 ]
    mass: 32.060000
    reduced_to: 121
  - symbol: S  # 122
    coordinates: [  0.604900519648000,  0.233265488697500,  0.395223163183000 ]
    mass: 32.060000
    reduced_to: 121
  - symbol: S  # 123
    coordinates: [  0.104900519648000,  0.733265488697500,  0.395223163183000 ]
    mass: 32.060000
    reduced_to: 121
  - symbol: S  # 124
    coordinates: [  0.604900519648000,  0.733265488697500,  0.395223163183000 ]
    mass: 32.060000
    reduced_to: 121
  - symbol: S  # 125
    coordinates: [  0.104900519648000,  0.233265488697500,  0.895223163183000 ]
    mass: 32.060000
    reduced_to: 121
  - symbol: S  # 126
    coordinates: [  0.604900519648000,  0.233265488697500,  0.895223163183000 ]
    mass: 32.060000
    reduced_to: 121
  - symbol: S  # 127
    coordinates: [  0.104900519648000,  0.733265488697500,  0.895223163183000 ]
    mass: 32.060000
    reduced_to: 121
  - symbol: S  # 128
    coordinates: [  0.604900519648000,  0.733265488697500,  0.895223163183000 ]
    mass: 32.060000
    reduced_to: 121
  - symbol: S  # 129
    coordinates: [  0.247279737150500,  0.375000000000000,  0.468151774548000 ]
    mass: 32.060000
    reduced_to: 129
  - symbol: S  # 130
    coordinates: [  0.747279737150500,  0.375000000000000,  0.468151774548000 ]
    mass: 32.060000
    reduced_to: 129
  - symbol: S  # 131
    coordinates: [  0.247279737150500,  0.875000000000000,  0.468151774548000 ]
    mass: 32.060000
    reduced_to: 129
  - symbol: S  # 132
    coordinates: [  0.747279737150500,  0.875000000000000,  0.468151774548000 ]
    mass: 32.060000
    reduced_to: 129
  - symbol: S  # 133
    coordinates: [  0.247279737150500,  0.375000000000000,  0.968151774548000 ]
    mass: 32.060000
    reduced_to: 129
  - symbol: S  # 134
    coordinates: [  0.747279737150500,  0.375000000000000,  0.968151774548000 ]
    mass: 32.060000
    reduced_to: 129
  - symbol: S  # 135
    coordinates: [  0.247279737150500,  0.875000000000000,  0.968151774548000 ]
    mass: 32.060000
    reduced_to: 129
  - symbol: S  # 136
    coordinates: [  0.747279737150500,  0.875000000000000,  0.968151774548000 ]
    mass: 32.060000
    reduced_to: 129
  - symbol: S  # 137
    coordinates: [  0.252720262849500,  0.125000000000000,  0.031848225452000 ]
    mass: 32.060000
    reduced_to: 137
  - symbol: S  # 138
    coordinates: [  0.752720262849500,  0.125000000000000,  0.031848225452000 ]
    mass: 32.060000
    reduced_to: 137
  - symbol: S  # 139
    coordinates: [  0.252720262849500,  0.625000000000000,  0.031848225452000 ]
    mass: 32.060000
    reduced_to: 137
  - symbol: S  # 140
    coordinates: [  0.752720262849500,  0.625000000000000,  0.031848225452000 ]
    mass: 32.060000
    reduced_to: 137
  - symbol: S  # 141
    coordinates: [  0.252720262849500,  0.125000000000000,  0.531848225452000 ]
    mass: 32.060000
    reduced_to: 137
  - symbol: S  # 142
    coordinates: [  0.752720262849500,  0.125000000000000,  0.531848225452000 ]
    mass: 32.060000
    reduced_to: 137
  - symbol: S  # 143
    coordinates: [  0.252720262849500,  0.625000000000000,  0.531848225452000 ]
    mass: 32.060000
    reduced_to: 137
  - symbol: S  # 144
    coordinates: [  0.752720262849500,  0.625000000000000,  0.531848225452000 ]
    mass: 32.060000
    reduced_to: 137
  - symbol: S  # 145
    coordinates: [  0.997279737150500,  0.375000000000000,  0.281848225452000 ]
    mass: 32.060000
    reduced_to: 145
  - symbol: S  # 146
    coordinates: [  0.497279737150500,  0.375000000000000,  0.281848225452000 ]
    mass: 32.060000
    reduced_to: 145
  - symbol: S  # 147
    coordinates: [  0.997279737150500,  0.875000000000000,  0.281848225452000 ]
    mass: 32.060000
    reduced_to: 145
  - symbol: S  # 148
    coordinates: [  0.497279737150500,  0.875000000000000,  0.281848225452000 ]
    mass: 32.060000
    reduced_to: 145
  - symbol: S  # 149
    coordinates: [  0.997279737150500,  0.375000000000000,  0.781848225452000 ]
    mass: 32.060000
    reduced_to: 145
  - symbol: S  # 150
    coordinates: [  0.497279737150500,  0.375000000000000,  0.781848225452000 ]
    mass: 32.060000
    reduced_to: 145
  - symbol: S  # 151
    coordinates: [  0.997279737150500,  0.875000000000000,  0.781848225452000 ]
    mass: 32.060000
    reduced_to: 145
  - symbol: S  # 152
    coordinates: [  0.497279737150500,  0.875000000000000,  0.781848225452000 ]
    mass: 32.060000
    reduced_to: 145
  - symbol: S  # 153
    coordinates: [  0.002720262849500,  0.125000000000000,  0.218151774548000 ]
    mass: 32.060000
    reduced_to: 153
  - symbol: S  # 154
    coordinates: [  0.502720262849500,  0.125000000000000,  0.218151774548000 ]
    mass: 32.060000
    reduced_to: 153
  - symbol: S  # 155
    coordinates: [  0.002720262849500,  0.625000000000000,  0.218151774548000 ]
    mass: 32.060000
    reduced_to: 153
  - symbol: S  # 156
    coordinates: [  0.502720262849500,  0.625000000000000,  0.218151774548000 ]
    mass: 32.060000
    reduced_to: 153
  - symbol: S  # 157
    coordinates: [  0.002720262849500,  0.125000000000000,  0.718151774548000 ]
    mass: 32.060000
    reduced_to: 153
  - symbol: S  # 158
    coordinates: [  0.502720262849500,  0.125000000000000,  0.718151774548000 ]
    mass: 32.060000
    reduced_to: 153
  - symbol: S  # 159
    coordinates: [  0.002720262849500,  0.625000000000000,  0.718151774548000 ]
    mass: 32.060000
    reduced_to: 153
  - symbol: S  # 160
    coordinates: [  0.502720262849500,  0.625000000000000,  0.718151774548000 ]
    mass: 32.060000
    reduced_to: 153

displacements:
- atom:    1
  displacement:
    [   0.0100000000000000,  0.0000000000000000,  0.0000000000000000 ]
  forces:
  - [  -0.0366144552292331,  0.0000006690082848,  0.0068889732470026 ]
  - [   0.0021218442967487,  0.0000008503159986, -0.0002547838474931 ]
  - [  -0.0001606357010942,  0.0000009447529884,  0.0000055241301729 ]
  - [   0.0001876082610622,  0.0000007336748221, -0.0000970835026959 ]
  - [  -0.0001179762224151,  0.0000002456410715, -0.0000644288014110 ]
  - [   0.0001479589026226,  0.0000005644472053, -0.0000402756572700 ]
  - [   0.0000651796841017,  0.0000008146417192, -0.0000898865006161 ]
  - [   0.0000078252174246,  0.0000006445225130, -0.0000245936770832 ]
  - [  -0.0012101699083085,  0.0004969745720447,  0.0005922473673209 ]
  - [   0.0005232005720940, -0.0000571149857239, -0.0000278052354852 ]
  - [  -0.0012101328431431, -0.0004984883492053,  0.0005920793927129 ]
  - [   0.0005231706673248,  0.0000558701426378, -0.0000277281256675 ]
  - [  -0.0001003847545318,  0.0000867827585959, -0.0000524418239948 ]