10
Lattice="-3.46814503 3.46814517 5.09857675 3.46814513 -3.46814507 5.09857675 3.46814507 3.46814503 -5.09857682" Properties=species:S:1:pos:R:3:forces:R:3 energy=-47.28666718 stress="-0.00010330001564831223 0.0 6.241509125883259e-12 0.0 -0.00010330001564831223 6.241509125883259e-12 6.241509125883259e-12 6.241509125883259e-12 0.0002893650138075963" free_energy=-47.28666718 pbc="T T T"
Ba       0.00000004       3.46814513       2.54928834       0.00000000      -0.00000000       0.00000000
Ba       3.46814512       0.00000001       2.54928834       0.00000000      -0.00000000       0.00000000
S       -1.34271416       2.12543093       5.09857674       0.00701361       0.00701361      -0.00000000
S        1.34271427       2.12543090      -0.00000009      -0.00701361       0.00701361      -0.00000000
S        2.12543093       1.34271426       5.09857672       0.00701361      -0.00701361      -0.00000000
S        4.81085937       1.34271423      -0.00000011      -0.00701361      -0.00701361       0.00000000
S        0.00000007       0.00000008       7.64786513       0.00000000      -0.00000000       0.00000000
S        0.00000002       0.00000003       2.54928838       0.00000000      -0.00000000       0.00000000
Zr       0.00000000       0.00000000       0.00000000       0.00000000      -0.00000000       0.00000000
Zr       0.00000005       0.00000005       5.09857675       0.00000000      -0.00000000       0.00000000
