80
Lattice="-7.09122138 4.92899446 10.88616713 10.65988525 -2.31585724 8.42817825 1.47953578 7.62855324 -11.56965183" Properties=species:S:1:pos:R:3:forces:R:3 energy=-154.72886599227786 pbc="T T T"
Ba      -0.78352488       3.37090263       2.30196414      -0.25428298      -0.02666655      -1.44473982
Ba       3.25935178       1.59904858       1.49206681       0.29810114       0.18742264       0.09048156
Zr      12.02544258       5.26894840      -2.98126917      -0.19257089       0.49618076      -0.28897034
Zr       2.43814022       8.27192933      -6.65471557       0.40537751       1.36891006      -0.12324618
S       -1.05246306       2.04843370       4.93836685      -0.63261996       0.12048624       0.22716061
S        0.61707590       2.21913419      -0.52308828      -0.24252371       0.36218790       0.20417641
S        2.07012712       2.81205017       4.27165290       0.22455676      -1.38260370       0.28062802
S        3.81735842       3.22185503      -1.21849721      -0.41920881      -0.67431134      -0.11382895
S        1.18762432       1.21886822       7.28973794       0.56655279      -0.14649724       0.09935463
S        2.02762534       7.91975984      -9.12033944      -0.26132459      -0.23507657       0.13758853
Ba      -0.04057562       7.19974245      -3.41009202      -0.18047173       0.35397889       0.60592538
Ba       4.08491750       5.71641613      -4.16106295       0.10590195      -0.54072869      -0.40327914
Zr      11.26139031       1.60317814       2.44708330       0.84624764      -0.73466834       1.09433903
Zr       1.68656577       4.42596296      -1.16028700      -0.07389334       0.40714995       1.04361146
S       -0.41144909       5.52014916      -0.47488329      -0.19710986       0.47809383      -0.25735123
S        1.16232377       6.33072781      -6.04896397      -0.31112770      -0.75294131       0.69002662
S        2.84011858       6.61489718      -1.65060696      -0.21297429      -0.41050756       0.28389657
S        4.35814844       6.86169514      -7.03712925       0.69627478      -0.00823105       0.46235000
S        2.36536411       4.55738369       1.37631912      -0.46096363       0.37501729      -0.46830665
S        1.31817626       3.97437738      -3.50400163      -0.69310030       0.14504225      -0.05526948
Ba       4.53432577       2.03115371       6.21830889      -0.36858565       0.96089868      -0.30609138
Ba       8.87989171       0.46337097       5.90902363       0.30585403       0.17516087      -0.53768690
Zr      -0.30263102      11.33310380       3.55516303      -0.09328501       0.14843886      -0.00433571
Zr       7.48335426       7.21341087      -2.27136328       0.70077907      -0.50405526      -1.60530949
S        4.17949688       1.21220058       9.16890991       0.65816026      -0.08318990      -0.18395336
S        5.69065267       1.10526231       3.35593856       0.00672756       0.41741450       0.80712988
S        7.58227291       1.39610826       8.36499590      -0.42688193       0.80786429       0.46240768
S        8.86316654       1.76965087       2.84668804       0.88494772      -0.33675716       0.17322847
S        6.80233094      -0.09561717      11.44355154      -0.16485736       0.57154547       1.03557116
S        5.74287782      -0.68843761       6.63979571       0.03838485      -0.52437158      -0.21811223
Ba       5.06188262       6.12569223       0.86970768      -0.18185783      -0.39435617      -0.26403608
Ba       9.72215634       4.21535850       0.31974877      -0.66734865       0.68500275      -1.25194817
Zr      -0.93277474       7.59258897       9.31205823      -0.02615695       0.47808013       0.50461622
Zr       7.00548614       3.30104153       3.14087643      -0.71051679       0.58140956       0.64697947
S        4.85397195       4.47582826       3.64641301       1.49942502       0.05461491       0.15954806
S        6.08506340       5.28616087      -1.93844622       0.55055478      -0.20246011      -0.14469272
S        8.43615236       5.31878376       2.70646824      -0.48220390       0.08520303       0.42801896
S        9.63983991       5.75007769      -2.43749089       0.50070947       0.04628558      -0.78739306
S        7.76044014       3.65463444       5.53574708      -0.68139328      -0.57488866       0.39249966
S        6.61042631       3.20973545       0.77182454      -0.06603581      -0.04310867      -0.02029612
Ba      -4.63324989       5.70826930       7.83354121       0.44468076       0.89066120       0.14890227
Ba      -0.06787354       4.24301975       7.03670806      -0.01135507      -0.28934533      -0.79898630
Zr      -3.38959782       2.46396058       5.43263945       0.28348820      -0.77969077       0.22855575
Zr      -1.11197720      10.69988949      -1.35872949      -0.44139233       0.01550944       0.22407657
S       -4.74856119       4.26287321      10.48707989       0.10864735      -0.22321495      -0.05594048
S       -3.14646156       4.87981248       5.39382916      -0.00056649       0.36954081      -0.62278521
S       -1.29613559       5.12604030       9.66264836      -0.51573053       0.50923030      -0.02453606
S        0.08158955       5.45174084       4.11663808      -0.47427868       0.90622819       0.46583830
S       -0.89151700      11.05743899       1.11858283       0.04437442      -0.39903190      -0.01065434
S       -1.57019949      10.26336189      -3.69474975       0.31426787       0.01287101       0.01949397
Ba      -3.54748377       9.60355315       1.86897828      -0.25488521      -0.07602249      -0.42816592
Ba       0.60881003       7.90314536       1.33457033      -0.50533388      -0.40759584      -0.49753111
Zr       7.68758794       3.89347269       8.01214020       1.44604669      -0.46845275       0.61484132
Zr      -2.00753353       6.91558274       4.70158149       0.40476316       0.23762946      -0.99730698
S       -4.00724979       8.40705093       4.73410199       0.38981486      -0.37317181       0.06378731
S       -2.22128479       8.53771680      -0.91160024      -0.56449333      -0.62596612       0.64667351
S       -0.66817622       8.91970380       3.90253826      -0.14862635       0.28117188       0.19340190
S        1.04225820       9.39881591      -1.29498232      -1.91764411       0.55817638       0.00222997
S       -1.29009163       7.21928181       6.98545764      -0.09030519       0.28467414      -1.07808482
S       -2.51178715       6.54552739       2.28548590      -0.30230564      -0.23887918      -1.59584019
Ba       0.33188258       4.55220029      12.02418145       1.25508362       0.32356129       0.02672441
Ba       5.30477128       3.12557161      11.32518036       0.24490991      -0.18596971       0.25432210
Zr       1.86179094       1.45421081       9.79520758      -0.29895016      -0.27570162      -1.52464564
Zr       2.76856488       2.01195985      14.49516262      -0.20033790      -1.20596463      -0.20985703
S        0.60755378       3.18534973      14.72389943      -0.15450761       0.11410577       0.26656663
S        1.88270960       3.97066787       9.30985339       0.62426228      -0.11991352       0.65018776
S        3.77135119       4.02178851      13.79192519       0.61090138       0.82636635      -0.46779744
S        5.33218389       4.34001822       8.42916151       0.08300894      -0.01547967      -0.33211767
S        3.24084364       2.47130606      16.83231619      -0.81850157      -0.68300418       0.28279990
S        3.66560877       8.93317199       0.50841715       0.84539710       0.83782892       1.56937711
Ba       1.60904114       9.04805036       5.93906407       0.21685556      -1.05247766       0.43908387
Ba       6.00797667       6.86111419       5.41315188       0.22532899      -0.31042596       0.10619474
Zr       2.51841620       5.15668983       3.76062958      -0.88039456      -0.24420530      -0.31031205
Zr       3.29831490       5.78731041       8.54665066      -0.47777840       1.11214766      -0.25018233
S        1.44139638       7.55635860       8.82155435       0.67793220      -0.65563727      -0.00609641
S        2.81686287       7.48876296       3.19387819       0.99708325       0.93217119       0.75628092
S        4.61626280       7.84507968       7.91534903       0.25225220      -0.63598334       0.27363884
S        6.39950617       8.23387751       2.64608872      -1.66647064       0.47278966       0.38925416
S        4.15645439       6.58885777      10.97779633      -0.29272870      -1.16534090      -1.36723095
S        2.80243736       5.69888041       6.12617258       0.26022727       0.01584266       1.60514824
320
Lattice="20.33131855 -4.12551588 0.34520645 4.31827862 20.01100074 -0.47677642 -0.31485325 0.14649313 20.74431208" Properties=species:S:1:pos:R:3:forces:R:3 energy=-602.9650911688805 pbc="T T T"
Ba       3.30476518       1.84469172       2.48918190       0.02205901       0.30074564      -0.30820255
Zr      20.03520069      -3.82331343      20.95481395      -0.30261937       0.16152946      -0.05061534
S        0.06232291       0.10763742       2.42195890      -0.26211831      -0.15616390      -0.88175854
S        0.61843278       2.78482600      20.47274229      -0.90923130      -2.16566394       0.51316262
S        6.96494062      19.11206886      -0.39928231      -0.47023679       0.15392831      -0.35301583
Ba       3.33503519       2.38639694       7.53033297      -0.52436422      -0.16683399       0.03988509
Zr      20.32319406      -3.76584173       5.39100698      -0.56631903      -0.72868378       0.28698537
S        0.25630906       0.41364938       7.49641431      -0.00276737      -0.39411786       0.83441980
S       20.78375184      -1.48795222       5.16450236       0.41451423       0.61321365      -0.45586920
S        2.67405997      -0.39154458       4.92892707      -1.40108848       0.67332844      -0.01772528
Ba       3.32325205       1.95733898      12.56548028       0.01669079       0.60048766       0.71960627
Zr      -0.06139117       0.17697263      10.30759169       0.03863791       0.57691984       0.33112954
S       24.28636057      15.96360379      12.70907636       0.24896541      -0.44290083      -0.12442274
S       20.43733993      -1.36419866      10.60663097      -0.18000492      -1.86341949       0.35418855
S        2.44751446       0.09878854      10.50783448      -0.05180330      -1.10183321      -1.00342500
Ba       2.68182841       2.28450574      17.76962777       0.81424889       0.42791334       0.08025269
Zr      -0.15290627       0.10062603      15.59431744       0.19221467      -0.88615587      -1.18182651
S        0.31941854       0.41561086      17.92680337      -0.16791442      -0.94863914       1.34111535
S        0.29757305       2.54072946      15.37661365       0.67694515       1.02210637      -0.56983547
S        2.40827968      -0.37677288      15.07198770      -0.26778448       0.29013372       0.19499499
Ba       3.99000928       6.96100319       2.40857042      -0.20987935       0.02435305       0.03848901
Zr       1.01434741       5.24944867      20.35372557      -0.99761639       0.20379002       0.32128725
S       21.23536408       1.37487765       2.64351011       0.25842163      -0.69116009       0.19110494
S        1.68280691       7.58041029      20.39053285       0.93319489       1.32206828      -0.53650228
S        3.72371058       4.36927892      -0.03628806      -0.91175042       0.42660604       0.03252761
Ba       4.67499184       6.85839720       7.91282619      -0.92351255       0.76284086      -0.62962905
Zr      21.37136731       1.19018870       5.37973454      -0.09023256       0.84293318      -0.37540959
S        1.11657301       4.67108316       7.37204207       0.22095557       0.07664744       1.02256417
S       21.61318867       3.69964033       5.25058551       0.24833312      -0.33435968       0.05013802
S        3.57415396       5.03899207       4.87575855       0.71153791      -0.77470515       0.27119619
Ba       3.66976564       7.05660144      13.39026238       0.26253366       0.07590656      -0.80413215
Zr      21.14242222       0.92637021      10.48534115      -0.14965416       1.25905063      -1.92074148
S       21.16082419       1.10272914      12.91075566      -0.29697780       0.32333538       2.03626156
S       21.59325187       3.39755322      10.01788935       0.69082164       0.73604505       0.48884642
S        3.47332035       4.50096660      10.25924953       0.01882572      -0.16970375      -0.31562365
Ba       3.98790879       7.61398281      18.01052473      -0.21791704      -0.85049009       0.25027012
Zr      21.07596988       0.93530849      15.43368147      -0.23431876       0.60133648       1.22905628
S        1.11934838       4.95550035      17.81965111      -0.13673491       0.19483782      -0.33256008
S        1.51480102       7.62846210      15.61729603      -0.33514494      -0.52308798      -0.26845293
S        3.22037997       4.45656405      15.04152406       0.72609236      -0.21296580       0.05552373
Ba       4.99704664      12.48717626       1.99122447      -0.08404574      -0.42598302       0.54902776
Zr       1.90150201      10.19325307      20.43072489      -0.00359914       0.02612339       1.34596534
S        2.62204507      10.15677879       2.23623928      -0.08000309      -0.58656382      -0.34094806
S        2.69677352      12.46423212      -0.18955784       0.04946390       1.23227451      -0.28885765
S        4.63447666       9.96484506      19.87800325      -1.18182201       0.47778289       0.49523631
Ba       5.42817000      12.53520307       7.18786608      -1.09392197      -0.92702514       0.51108358
Zr      22.00086558       6.20286602       5.25082133       2.20028908      -1.23308936       1.23355274
S       21.67798805       6.25106726       7.74633120       0.20529182      -0.04434814      -0.39905453
S        2.92154811      12.47679328       4.59368312      -0.34254827       0.72885022       0.16623746
S        4.49646320       9.46386277       5.58881002       1.66432993      -0.41737334      -0.36449004
Ba       5.17196175      11.98000906      13.06256249      -0.42338857       0.01100709       0.02966948
Zr      22.19479290       6.07227521      10.67625335      -0.44815503      -1.21743704      -1.24104046
S        2.03827096      10.06783368      12.82326120       0.11557806       0.00262279      -1.13237257
S       22.63879486       8.42100780      10.12639782       0.55514268       0.36250807       0.70699778
S        4.58453264       9.73578784      10.21221036      -0.45216762       0.13183462      -0.22673394
Ba       4.92021561      12.62777799      17.93051060      -0.43141760      -0.30542681      -0.02937011
Zr       1.99741286      10.13931865      15.32943088      -1.02710962       0.57711540       0.75784907
S       21.98585424       6.45156861      18.23971463       0.12706418      -0.41083252      -0.39132245
S       22.80049056       8.56533008      15.49977794       0.18172414      -0.25788419      -0.39789587
S        4.32882083       9.52992815      15.54144407       1.65406844      -0.22717202      -0.21959403
Ba       6.10034920      17.19379140       2.28583136       0.14657513      -0.29009946      -0.13058054
Zr      23.45014269      11.07450235       0.00860494      -0.26134582      -0.98578566      -0.58729456
S       23.48076646      10.94970652       2.56461541       0.23535060       0.47820369      -1.09077904
S       23.48198801      13.60743554      20.44249747       0.59813870       0.30676452       0.10063543
S        5.35574112      14.83210158      20.37130745       0.86264970      -0.17405348      -0.34401168
Ba       6.15029270      17.57388878       7.12813541       0.09389508      -0.29655539      -0.13076181
Zr      23.33051083      10.99080363       5.09676761      -0.22870803      -0.49516099       0.33288019
S       23.44320919      11.15825079       7.53425512      -0.16664149      -0.29165131       1.62582595
S       23.97301439      13.48780730       5.04984671       0.32962543       0.27250343      -0.37224223
S        5.50808657      14.42043789       4.97442693       1.08761893       0.70724950      -0.86166964
Ba       5.95594180      16.99116701      12.58671088       0.02201167       0.45386830       0.19116296
Zr      23.36089193      10.90551216      10.31943607      -2.31122581       0.66728034      -0.04085804
S       23.32713607      11.15261358      12.90645747       0.13205249      -0.18041427      -0.57854239
S        3.81989144      17.64159252       9.88148135       0.06090465      -0.56962670      -0.37220225
S        5.28158249      14.25364237       9.93778994       1.37341588      -0.09528203       0.27082050
Ba       6.14765868      16.98321710      17.57909426      -0.04012488       0.52682581       0.15883342
Zr      23.13987017      11.12009771      15.47302571      -0.93020785      -0.40887508       0.33914359
S       23.01148297      10.81699932      18.03691838       0.40432161       0.48380596       0.34171735
S       23.78837854      13.57184244      15.42342999       0.13051095      -0.30094629       0.30754391
S        5.43757815      14.87213412      15.13082039       0.64032250      -0.32987624       0.34626633
Ba       8.17527211       1.23702457       2.60349494      -0.31011015       0.02033977      -0.02668595
Zr       9.21182042      18.94173397      19.92612778      -0.95461444       0.64374840       0.75073659
S        5.36311306      -0.60151762       2.45256856       0.02189464      -0.48920217       0.42563581
S        5.16164200       1.63517075      20.53183629      -0.12638033      -1.73899814      -0.54542306
S        7.37195504      -1.29600083      20.51978920       0.34340415       0.03291236      -0.27304974
Ba       7.79605223       1.12102001       8.05637023       0.05270333       0.00952815      -0.12262624
Zr       9.25970170      18.93253273       4.44698106       1.30695879      -0.06279126      -0.03035125
S        9.31213932      18.82054078       7.24876808       0.08252417       0.56387812       0.21686239
S        5.86794224       1.67703158       5.21398337      -0.68732454      -1.36821839       0.10436230
S       11.79182627      18.13340900       4.72124009       0.41490010       0.66636855      -0.10779393
Ba       8.89114321       0.86736442      13.05806593      -1.22443328      -0.41983999      -0.46885809
Zr       9.25174517      18.96514213       9.84494823      -0.05459385       1.32058391       0.09547100
S        5.13989479      -0.79828865      12.84047713      -0.18531215       0.08257109       0.69942428
S        5.60931070       1.44886234      10.47300770       0.42999768       0.62969499      -1.13039836
S       11.72588997      18.19146236      10.13768647       0.89228002      -0.11670337      -0.25482922
Ba       7.48159074       1.40843746      17.94990489       0.81891865      -0.37989292       0.99154118
Zr       4.84588654      -0.64335555      15.34191830      -0.06144275      -1.43747640      -1.04078071
S        9.24034356      18.75639615      17.36606158      -0.26625427       0.51361799       1.07226183
S        5.45722260       1.59195645      15.88247540      -0.75192375       0.87000902      -0.66758810
S        7.76374448      -1.05348046      15.23696656       0.46291236      -0.96795145       0.53433303
Ba       8.75491794       6.08984824       2.53492980       0.35288326      -0.08074087      -0.06466596
Zr       5.67017775       3.90336450      20.51678347       1.26933043       1.63028132       0.52494828
S        5.93832306       4.02945712       2.39701841       0.66284779      -0.42339727       0.48277296
S        6.52243313       6.59174605       0.14880537       0.26600275       0.08432785      -0.35620778
S        8.39169918       3.44767057      20.42879418      -0.57798176       0.19880159       0.08161185
Ba       9.40523142       5.72333960       7.73932825      -0.63764057      -0.01433940      -0.59029490
Zr       6.18629480       4.07296638       5.08943290       0.08174922       0.10163167      -1.24884535
S        6.04956406       4.08087226       7.56407345      -0.14284412       0.11481201       1.33133110
S        6.85265526       6.51898349       5.03474452      -0.12723657       0.74444299       0.26818452
S        8.73352373       3.73470550       5.05434010      -0.24164496      -0.59812384      -0.17272921
Ba       9.51222324       6.42297141      13.28030209      -0.59218969      -0.13995500      -0.95223449
Zr       5.89221584       4.17228040      10.28718990       0.62758204      -0.25582142       0.98963963
S        5.97185855       3.90890803      12.85402293       0.10304464      -0.21958789       0.02684316
S        6.39710150       6.68477757      10.52505892      -0.08122169      -0.65020728       0.01029905
S        8.46115836       3.74128229       9.95642494       0.81756749      -0.73363085       0.20832576
Ba       8.94219981       6.09564768      18.65380554      -0.01449415      -0.18879670       0.04051563
Zr       5.89742185       4.21942067      15.37306977      -0.85478676      -2.21277293      -0.04916015
S        5.54984699       4.31480868      17.94047749       0.50678733       0.15364355      -0.19985922
S        6.48385701       6.39642875      15.00237614       0.77939138       2.94628880       0.22707719
S        8.56825577       3.21294286      15.64123902      -0.65213608       0.55126567      -0.41568971
Ba      10.32011978      11.32426181       2.59625234      -0.59933387      -0.58248473      -0.62588954
Zr       7.08456691       9.05283592      -0.11816741       0.77222838      -1.51230502       0.68209608
S        7.38496082       8.90905802       2.50951556      -1.13713309       0.94704715       0.04815086
S        7.54038845      11.63625787      20.32664548       0.20681857       1.48352781      -0.07039454
S        9.82482360       8.67769690      -0.06422856       0.41623844      -0.48301253       0.08391645
Ba       9.92418296      10.93021122       7.78831451       0.21345663      -0.27661698      -0.21816875
Zr       6.87442590       9.00494106       5.11232396      -0.41889835       0.51175422       0.07537165
S        7.55058896       8.65217153       7.84667822      -0.22558787       0.13653139      -0.63536189
S        7.66388756      11.60447345       5.36351526       0.32695927      -0.44158335      -0.35837490
S        9.93069073       8.85701671       4.45667363       0.69558648      -0.45602616       0.72900772
Ba       9.88089903      11.45483156      12.68793747      -0.15840563      -0.60055568      -0.19265116
Zr       6.92641271       9.16527120      10.26740035       0.21865086      -0.36382891      -0.14635551
S        7.02659890       9.33667240      12.82823058      -0.05932554       0.33751365       0.86847928
S        7.64533094      11.75364169       9.72637725      -0.07549306      -0.43544361       0.64873698
S        9.70813915       8.43820261      10.73367711       0.13666936       0.40489320      -0.31188754
Ba       9.90111996      11.47459913      18.03288730       0.42148032      -0.54162581      -0.13919758
Zr       7.09192947       9.01837750      15.47572105       0.45795969       0.60370418       0.29753734
S        7.00471191       8.60644433      18.13038749       0.57896635       0.16757201      -1.95958618
S        7.11951365      11.74497610      15.75648452       0.46876130      -0.45862785      -0.51939002
S        9.58237513       8.80975178      15.31708430      -0.78841303       0.12065149      -0.08227228
Ba      11.65111570      15.94883769       2.52609055      -0.45639248      -0.10500067      -0.73556940
Zr       7.97487444      14.11928233      20.36722832      -0.21030557       0.52197056       1.25761602
S        8.08320064      14.32364457       2.37924325      -0.31479001      -0.80285701      -1.56679545
S        8.86824754      16.57471071      20.28884426      -0.02732509      -0.46115668       0.05375883
S       10.94381821      13.41807647      -0.06840364      -0.63878080       0.02006780      -0.42028915
Ba      11.24553420      16.24185350       7.13432330       0.07314924      -0.34290254       0.17061526
Zr       8.07447195      14.08340436       4.98261563      -0.02025022      -0.21177153      -0.65354958
S        8.23259840      14.42804330       7.46635467      -0.32623262       0.14665539      -0.02052703
S        8.45371438      16.59593841       4.57722796       0.37595530       0.70415436       0.13841647
S       10.67587377      13.65569160       4.38772809       0.26531533       0.22527609       1.48468931
Ba      11.72798586      15.98367852      12.75869535      -0.23420284       0.20248905       0.07210004
Zr       7.70448565      14.24494172      10.04842518       1.41127772      -0.23735036      -0.45046715
S        7.85978986      14.19543448      12.63503754       0.05679056      -0.70082270      -0.36788470
S        8.29890432      16.77985337       9.95068897      -0.90016206      -1.27957604       0.41284066
S       10.48817847      13.78288580       9.84156561       0.29075239      -0.04499358       0.47222891
Ba      11.08745657      16.36423768      17.66718901       0.39782716      -0.62013881      -0.13053812
Zr       7.98366584      14.23765296      15.20341928       0.19556761       0.87126612       0.07502541
S        8.07662100      14.43312322      17.78953039      -0.14406911      -0.19548106       0.53409136
S        8.58175197      16.78598894      14.82588274       0.03582380      -1.44322360       0.31642821
S       10.51745929      13.61596541      15.47246508      -0.61919315      -0.28476199      -0.17880800
Ba      13.10132869      -0.05886109       3.33355773       0.70201413      -0.39962990      -0.82612203
Zr       9.82183308      -1.81112522      20.53789266      -0.26230834       0.30881394       1.54810381
S       10.40775810      -1.68023607       2.29033837      -0.38173412       0.03559720       0.65369343
S       10.31648329       0.73805345      20.06890086      -0.39478964      -2.22939339      -0.25278099
S       12.65362840      -2.35505951      20.70330984      -2.37391450       0.64628844       0.35087610
Ba      12.87082508      -0.02442489       8.07423375       0.49667502      -0.05270328      -0.23855862
Zr      10.12706553      -1.91752704       5.15411771      -0.33308452      -1.80785415       0.17566136
S       14.34596324      17.92042974       7.44542071      -0.13305236      -0.22170821      -0.62598991
S       10.60996847       0.42952950       5.16941398      -0.26376617       0.27933672       0.49558501
S       16.82517718      17.25596007       4.58626097       0.54537118       0.90877049       0.62214325
Ba      13.30553488      -0.41524696      12.88473114       0.30143763       0.38107742       0.48938670
Zr      14.19147913      17.75145411       9.92139712       0.46989574       0.44454481      -0.36394002
S       14.92475874      17.81393778      12.52507984      -0.90406476       0.10113621      -0.19906987
S       10.68533060       0.45557718      10.03570863      -1.08026195      -0.04431804       1.05150660
S       17.04612580      17.34776340       9.87556515      -0.39056323       0.32599596       0.44915708
Ba      12.69740068      -0.42738156      18.26695804       1.04644887       0.84414534      -0.63531981
Zr      14.46625642      17.99005675      15.11084893       0.23741562      -0.15796204      -0.78532104
S       14.36266106      17.76865005      17.61490928       0.02167666       0.12246420      -0.24304853
S       10.96317846       0.49389220      15.33768625      -0.03573684      -0.96768618       0.54406971
S       17.08881769      17.37626524      15.18407366      -2.08141305       0.06646001      -0.35346794
Ba      14.80914550       5.41015058       2.57606620      -0.73408620      -0.87028494      -0.05978693
Zr      11.01925597       2.90513959      20.67178961       1.24117866       1.22509058      -0.47247483
S       11.12361098       2.36579164       2.40136043       0.36412768       0.09255134       0.74039161
S       11.48611102       5.30513701       0.20441605       0.43744080       1.14545804      -0.13566746
S       13.66830114       2.58169613      20.49936229      -1.34043230      -0.28978981       0.73052106
Ba      14.12546306       4.60613318       7.94102043       0.38612214      -0.08846703      -0.38048864
Zr      11.40786815       2.90852502       4.93012844      -0.67803801       1.03900662       0.35248267
S       11.43419159       2.92470281       7.66906918      -0.64238302       0.42638793       0.38122642
S       11.53029025       5.31868374       4.93962300       0.83140139       1.14573146       0.03673566
S       13.75662187       2.36723266       5.37093505      -0.98417175      -0.40733029      -0.82279212
Ba      13.49029039       4.79602973      13.09417308       0.97809388       0.10183214      -0.37901759
Zr      10.99975342       3.02612838      10.19476613       0.00054282      -1.05426969      -0.25506642
S       11.02768062       2.83075157      12.77287244       0.13684431       0.51402449       0.63291231
S       11.54149862       5.38700217      10.74472641       0.27535172       1.09776276      -0.99754050
S       13.59625908       2.51023565      10.38696667       0.47415190      -0.12049772       0.11161357
Ba      13.93593849       4.90433718      18.19354821       0.65638361      -0.03550514       0.12734603
Zr      10.98429197       2.96376967      15.45177788       0.79558008       0.33476282       1.30551236
S       11.42793174       3.29904734      17.95226690      -0.82196661      -0.37269968      -0.39930914
S       11.61221895       5.57209559      15.39382446      -0.34752698      -0.66328675      -0.40764762
S       13.75245815       2.54949431      15.26341489      -1.87523975       0.59283495      -0.05497079
Ba      15.17760412      10.10420236       2.83746807       0.58653181      -0.44186691      -0.38939477