nqpoint: 550    
npath: 11     
segment_nqpoint:
- 50
- 50
- 50
- 50
- 50
- 50
- 50
- 50
- 50
- 50
- 50
labels:
- [ 'G', 'X' ]
- [ 'X', 'Y' ]
- [ 'Y', 'S' ]
- [ 'S', 'G' ]
- [ 'G', 'Z' ]
- [ 'Z', 'S1' ]
- [ 'S1', 'N' ]
- [ 'N', 'P' ]
- [ 'P', 'Y1' ]
- [ 'Y1', 'Z|X' ]
- [ 'Z|X', 'P' ]
reciprocal_lattice:
- [  -0.00000000,   0.14279142,   0.09774117 ] # a*
- [   0.14279142,   0.00000000,   0.09774117 ] # b*
- [   0.14279142,   0.14279142,   0.00000000 ] # c*
natom: 10     
lattice:
- [    -3.501611021331000,     3.501611021331000,     5.115551848565000 ] # a
- [     3.501611021331000,    -3.501611021331000,     5.115551848565000 ] # b
- [     3.501611021331000,     3.501611021331000,    -5.115551848565000 ] # c
points:
- symbol: Ba # 1
  coordinates: [  0.750000000000000,  0.250000000000000,  0.500000000000000 ]
  mass: 137.327000
- symbol: Ba # 2
  coordinates: [  0.250000000000000,  0.750000000000000,  0.500000000000000 ]
  mass: 137.327000
- symbol: Zr # 3
  coordinates: [  0.000000000000000,  0.000000000000000,  0.000000000000000 ]
  mass: 91.224000
- symbol: Zr # 4
  coordinates: [  0.500000000000000,  0.500000000000000,  0.000000000000000 ]
  mass: 91.224000
- symbol: S  # 5
  coordinates: [  0.750000000000000,  0.750000000000000,  0.000000000000000 ]
  mass: 32.060000
- symbol: S  # 6
  coordinates: [  0.250000000000000,  0.250000000000000,  0.000000000000000 ]
  mass: 32.060000
- symbol: S  # 7
  coordinates: [  0.804145427264000,  0.695854572736000,  0.500000000000000 ]
  mass: 32.060000
- symbol: S  # 8
  coordinates: [  0.195854572736000,  0.304145427264000,  0.500000000000000 ]
  mass: 32.060000
- symbol: S  # 9
  coordinates: [  0.304145427264001,  0.804145427264000,  0.108290854528001 ]
  mass: 32.060000
- symbol: S  # 10
  coordinates: [  0.695854572736000,  0.195854572736000,  0.891709145471999 ]
  mass: 32.060000

phonon:
- q-position: [    0.0000000,    0.0000000,    0.0000000 ]
  distance:    0.0000000
  band:
  - # 1
    frequency:   -0.0078161610
  - # 2
    frequency:   -0.0078161610
  - # 3
    frequency:   -0.0008707705
  - # 4
    frequency:    0.9139725800
  - # 5
    frequency:    0.9139725800
  - # 6
    frequency:    1.0881870494
  - # 7
    frequency:    2.0718373188
  - # 8
    frequency:    2.0718373188
  - # 9
    frequency:    2.3716935239
  - # 10
    frequency:    2.3716935239
  - # 11
    frequency:    2.5236823627
  - # 12
    frequency:    2.7318368916
  - # 13
    frequency:    2.7318368916
  - # 14
    frequency:    3.7288353233
  - # 15
    frequency:    3.8302308860
  - # 16
    frequency:    3.8302308860
  - # 17
    frequency:    3.9889440672
  - # 18
    frequency:    4.5830305452
  - # 19
    frequency:    6.0468252871
  - # 20
    frequency:    6.2558846001
  - # 21
    frequency:    6.2558846001
  - # 22
    frequency:    6.3722540283
  - # 23
    frequency:    6.8831392102
  - # 24
    frequency:    6.8831392102
  - # 25
    frequency:    8.0655806013
  - # 26
    frequency:    8.7986231580
  - # 27
    frequency:    8.7986231580
  - # 28
    frequency:    8.8174344060
  - # 29
    frequency:    8.9452471585
  - # 30
    frequency:   13.0008323804

- q-position: [    0.0000000,    0.0000000,    0.0102041 ]
  distance:    0.0020606
  band:
  - # 1
    frequency:    0.0895425701
  - # 2
    frequency:    0.0972551809
  - # 3
    frequency:    0.1248368322
  - # 4
    frequency:    0.9137386867
  - # 5
    frequency:    0.9170029093
  - # 6
    frequency:    1.0905053264
  - # 7
    frequency:    2.0719155472
  - # 8
    frequency:    2.0741057032
  - # 9
    frequency:    2.3714447320
  - # 10
    frequency:    2.3719997301
  - # 11
    frequency:    2.5191446552
  - # 12
    frequency:    2.7331863722
  - # 13
    frequency:    2.7450937530
  - # 14
    frequency:    3.7299589409
  - # 15
    frequency:    3.8302998316
  - # 16
    frequency:    3.8309790936
  - # 17
    frequency:    3.9915742367
  - # 18
    frequency:    4.5835598841
  - # 19
    frequency:    6.0457746802
  - # 20
    frequency:    6.2480769247
  - # 21
    frequency:    6.2563498650
  - # 22
    frequency:    6.3802942229
  - # 23
    frequency:    6.8786826650
  - # 24
    frequency:    6.8848154696
  - # 25
    frequency:    8.0660049928
  - # 26
    frequency:    8.7967135509
  - # 27
    frequency:    8.8021775387
  - # 28
    frequency:    8.8174388852
  - # 29
    frequency:    8.9473191755
  - # 30
    frequency:   13.0025659223

- q-position: [    0.0000000,    0.0000000,    0.0204082 ]
  distance:    0.0041212
  band:
  - # 1
    frequency:    0.1792624055
  - # 2
    frequency:    0.1939987703
  - # 3
    frequency:    0.2492669644
  - # 4
    frequency:    0.9131648074
  - # 5
    frequency:    0.9260121705
  - # 6
    frequency:    1.0972739678
  - # 7
    frequency:    2.0721502546
  - # 8
    frequency:    2.0808465820
  - # 9
    frequency:    2.3707146151
  - # 10
    frequency:    2.3729338550
  - # 11
    frequency:    2.5079655982
  - # 12
    frequency:    2.7372080247
  - # 13
    frequency:    2.7821509738
  - # 14
    frequency:    3.7333133866
  - # 15
    frequency:    3.8306497291
  - # 16
    frequency:    3.8332220497
  - # 17
    frequency:    3.9993499373
  - # 18
    frequency:    4.5851526874
  - # 19
    frequency:    6.0426571568
  - # 20
    frequency:    6.2289915118
  - # 21
    frequency:    6.2577429633
  - # 22
    frequency:    6.4000650230
  - # 23
    frequency:    6.8653519201
  - # 24
    frequency:    6.8897990242
  - # 25
    frequency:    8.0672597332
  - # 26
    frequency:    8.7913545592
  - # 27
    frequency:    8.8128327286
  - # 28
    frequency:    8.8174500884
  - # 29
    frequency:    8.9531745182
  - # 30
    frequency:   13.0077214699

- q-position: [    0.0000000,    0.0000000,    0.0306122 ]
  distance:    0.0061818
  band:
  - # 1
    frequency:    0.2682029628
  - # 2
    frequency:    0.2896817571
  - # 3
    frequency:    0.3720710930
  - # 4
    frequency:    0.9125875484
  - # 5
    frequency:    0.9407623776
  - # 6
    frequency:    1.1079941928
  - # 7
    frequency:    2.0725417333
  - # 8
    frequency:    2.0918736564
  - # 9
    frequency:    2.3695512910
  - # 10
    frequency:    2.3745423739
  - # 11
    frequency:    2.4941696859
  - # 12
    frequency:    2.7438222616
  - # 13
    frequency:    2.8381716009
  - # 14
    frequency:    3.7388493800
  - # 15
    frequency:    3.8316548323
  - # 16
    frequency:    3.8369544916
  - # 17
    frequency:    4.0119855760
  - # 18
    frequency:    4.5878233143
  - # 19
    frequency:    6.0375720509
  - # 20
    frequency:    6.2046316850
  - # 21
    frequency:    6.2600558275
  - # 22
    frequency:    6.4255268192
  - # 23
    frequency:    6.8432627000
  - # 24
    frequency:    6.8979581853
  - # 25
    frequency:    8.0692901757
  - # 26
    frequency:    8.7834297844
  - # 27
    frequency:    8.8174613365
  - # 28
    frequency:    8.8305643089
  - # 29
    frequency:    8.9619560355
  - # 30
    frequency:   13.0161655130

- q-position: [    0.0000000,    0.0000000,    0.0408163 ]
  distance:    0.0082423
  band:
  - # 1
    frequency:    0.3561199271
  - # 2
    frequency:    0.3837042317
  - # 3
    frequency:    0.4925440201
  - # 4
    frequency:    0.9124591562
  - # 5
    frequency:    0.9608791983
  - # 6
    frequency:    1.1219895349
  - # 7
    frequency:    2.0730911728
  - # 8
    frequency:    2.1068868567
  - # 9
    frequency:    2.3680327780
  - # 10
    frequency:    2.3769025975
  - # 11
    frequency:    2.4802097801
  - # 12
    frequency:    2.7528990236
  - # 13
    frequency:    2.9094344825
  - # 14
    frequency:    3.7464846194
  - # 15
    frequency:    3.8338017600
  - # 16
    frequency:    3.8421667752
  - # 17
    frequency:    4.0291558446
  - # 18
    frequency:    4.5915956721
  - # 19
    frequency:    6.0306739384
  - # 20
    frequency:    6.1780590505
  - # 21
    frequency:    6.2632750825
  - # 22
    frequency:    6.4535582736
  - # 23
    frequency:    6.8126047474
  - # 24
    frequency:    6.9090858644
  - # 25
    frequency:    8.0720074526
  - # 26
    frequency:    8.7739271961
  - # 27
    frequency:    8.8174615805
  - # 28
    frequency:    8.8553297323
  - # 29
    frequency:    8.9727168868
  - # 30
    frequency:   13.0276811382

- q-position: [    0.0000000,    0.0000000,    0.0510204 ]
  distance:    0.0103029
  band:
  - # 1
    frequency:    0.4427044004
  - # 2
    frequency:    0.4753447829
  - # 3
    frequency:    0.6099434030
  - # 4
    frequency:    0.9132975269
  - # 5
    frequency:    0.9858802404
  - # 6
    frequency:    1.1385377792
  - # 7
    frequency:    2.0738015530
  - # 8
    frequency:    2.1254553379
  - # 9
    frequency:    2.3662637840
  - # 10
    frequency:    2.3801224240
  - # 11
    frequency:    2.4672064427
  - # 12
    frequency:    2.7642616125
  - # 13
    frequency:    2.9932244438
  - # 14
    frequency:    3.7561036313
  - # 15
    frequency:    3.8375866250
  - # 16
    frequency:    3.8488435588
  - # 17
    frequency:    4.0506208151
  - # 18
    frequency:    4.5965031046
  - # 19
    frequency:    6.0221589072
  - # 20
    frequency:    6.1505795132
  - # 21
    frequency:    6.2673821525
  - # 22
    frequency:    6.4827713982
  - # 23
    frequency:    6.7736372228
  - # 24
    frequency:    6.9229154208
  - # 25
    frequency:    8.0752918647
  - # 26
    frequency:    8.7636944273
  - # 27
    frequency:    8.8174355266
  - # 28
    frequency:    8.8870656524
  - # 29
    frequency:    8.9846611065
  - # 30
    frequency:   13.0419759527

- q-position: [    0.0000000,    0.0000000,    0.0612245 ]
  distance:    0.0123635
  band:
  - # 1
    frequency:    0.5276412844
  - # 2
    frequency:    0.5636345605
  - # 3
    frequency:    0.7235422747
  - # 4
    frequency:    0.9157481823
  - # 5
    frequency:    1.0152062964
  - # 6
    frequency:    1.1569640374
  - # 7
    frequency:    2.0746786123
  - # 8
    frequency:    2.1469447162
  - # 9
    frequency:    2.3643713357
  - # 10
    frequency:    2.3843399306
  - # 11
    frequency:    2.4558491999
  - # 12
    frequency:    2.7776919361
  - # 13
    frequency:    3.0871099981
  - # 14
    frequency:    3.7675577702
  - # 15
    frequency:    3.8434644813
  - # 16
    frequency:    3.8569619548
  - # 17
    frequency:    4.0763115335
  - # 18
    frequency:    4.6025880851
  - # 19
    frequency:    6.0122497753
  - # 20
    frequency:    6.1227820618
  - # 21
    frequency:    6.2723534084
  - # 22
    frequency:    6.5124742613
  - # 23
    frequency:    6.7266824995
  - # 24
    frequency:    6.9391384161
  - # 25
    frequency:    8.0789977583
  - # 26
    frequency:    8.7533855052
  - # 27
    frequency:    8.8173638136
  - # 28
    frequency:    8.9256843871
  - # 29
    frequency:    8.9971915609
  - # 30
    frequency:   13.0586922934

- q-position: [    0.0000000,    0.0000000,    0.0714286 ]
  distance:    0.0144241
  band:
  - # 1
    frequency:    0.6106188896
  - # 2
    frequency:    0.6470724831
  - # 3
    frequency:    0.8326526596
  - # 4
    frequency:    0.9208367128
  - # 5
    frequency:    1.0482507564
  - # 6
    frequency:    1.1767056282
  - # 7
    frequency:    2.0757316818
  - # 8
    frequency:    2.1703608159
  - # 9
    frequency:    2.3624994011
  - # 10
    frequency:    2.3897227221
  - # 11
    frequency:    2.4469981455
  - # 12
    frequency:    2.7929370079
  - # 13
    frequency:    3.1885685383
  - # 14
    frequency:    3.7806655938
  - # 15
    frequency:    3.8518428527
  - # 16
    frequency:    3.8664891474
  - # 17
    frequency:    4.1063880825
  - # 18
    frequency:    4.6099015675
  - # 19
    frequency:    6.0011828597
  - # 20
    frequency:    6.0949535893
  - # 21
    frequency:    6.2781603567
  - # 22
    frequency:    6.5422580136
  - # 23
    frequency:    6.6721186658
  - # 24
    frequency:    6.9574217028
  - # 25
    frequency:    8.0829599745
  - # 26
    frequency:    8.7434894549
  - # 27
    frequency:    8.8172232447
  - # 28
    frequency:    8.9710697273
  - # 29
    frequency:    9.0098751733
  - # 30
    frequency:   13.0774189905

- q-position: [    0.0000000,    0.0000000,    0.0816327 ]
  distance:    0.0164847
  band:
  - # 1
    frequency:    0.6913326413
  - # 2
    frequency:    0.7229679828
  - # 3
    frequency:    0.9305955284
  - # 4
    frequency:    0.9366510401
  - # 5
    frequency:    1.0843841009
  - # 6
    frequency:    1.1973755034
  - # 7
    frequency:    2.0769741853
  - # 8
    frequency:    2.1941013830
  - # 9
    frequency:    2.3608027417
  - # 10
    frequency:    2.3964668972
  - # 11
    frequency:    2.4420897572
  - # 12
    frequency:    2.8097164609
  - # 13
    frequency:    3.2948457391
  - # 14
    frequency:    3.7952139064
  - # 15
    frequency:    3.8631003285
  - # 16
    frequency:    3.8773794830
  - # 17
    frequency:    4.1412920254
  - # 18
    frequency:    4.6185018110
  - # 19
    frequency:    5.9891980959
  - # 20
    frequency:    6.0672387484
  - # 21
    frequency:    6.2847698677
  - # 22
    frequency:    6.5718391894
  - # 23
    frequency:    6.6103711815
  - # 24
    frequency:    6.9774221258
  - # 25
    frequency:    8.0870018894
  - # 26
    frequency:    8.7343707260
  - # 27
    frequency:    8.8169870755
  - # 28
    frequency:    9.0223957240
  - # 29
    frequency:    9.0230723600
  - # 30
    frequency:   13.0977039335

- q-position: [    0.0000000,    0.0000000,    0.0918367 ]
  distance:    0.0185453
  band:
  - # 1
    frequency:    0.7694876963
  - # 2
    frequency:    0.7862973111
  - # 3
    frequency:    0.9491500530
  - # 4
    frequency:    1.0350074585
  - # 5
    frequency:    1.1229723264
  - # 6
    frequency:    1.2188504668
  - # 7
    frequency:    2.0784236397
  - # 8
    frequency:    2.2157253975
  - # 9
    frequency:    2.3594403420
  - # 10
    frequency:    2.4047954192
  - # 11
    frequency:    2.4433930729
  - # 12
    frequency:    2.8277307585
  - # 13
    frequency:    3.4028938079
  - # 14
    frequency:    3.8109598117
  - # 15
    frequency:    3.8776184590
  - # 16
    frequency:    3.8895710466
  - # 17
    frequency:    4.1818010428
  - # 18
    frequency:    4.6284524761
  - # 19
    frequency:    5.9765334238
  - # 20
    frequency:    6.0397069695
  - # 21
    frequency:    6.2921444407
  - # 22
    frequency:    6.5419042591
  - # 23
    frequency:    6.6009951015
  - # 24
    frequency:    6.9987980722
  - # 25
    frequency:    8.0909449280
  - # 26
    frequency:    8.7262996266
  - # 27
    frequency:    8.8166253612
  - # 28
    frequency:    9.0345162758
  - # 29
    frequency:    9.0815052307
  - # 30
    frequency:   13.1190667436

- q-position: [    0.0000000,    0.0000000,    0.1020408 ]
  distance:    0.0206059
  band:
  - # 1
    frequency:    0.8306257845
  - # 2
    frequency:    0.8448015114
  - # 3
    frequency:    0.9816881776
  - # 4
    frequency:    1.1273150462
  - # 5
    frequency:    1.1633897394
  - # 6
    frequency:    1.2414061653
  - # 7
    frequency:    2.0801010182
  - # 8
    frequency:    2.2322065372
  - # 9
    frequency:    2.3585688836
  - # 10
    frequency:    2.4149555915
  - # 11
    frequency:    2.4537336196
  - # 12
    frequency:    2.8466697295
  - # 13
    frequency:    3.5093368394
  - # 14
    frequency:    3.8276341267
  - # 15
    frequency:    3.8958223039
  - # 16
    frequency:    3.9029817421
  - # 17
    frequency:    4.2290638401
  - # 18
    frequency:    4.6398197964
  - # 19
    frequency:    5.9634237244
  - # 20
    frequency:    6.0123835404
  - # 21
    frequency:    6.3002425056
  - # 22
    frequency:    6.4672126108
  - # 23
    frequency:    6.6295353746
  - # 24
    frequency:    7.0212178660
  - # 25
    frequency:    8.0946192075
  - # 26
    frequency:    8.7194710036
  - # 27
    frequency:    8.8161053646
  - # 28
    frequency:    9.0460532748
  - # 29
    frequency:    9.1461392127
  - # 30
    frequency:   13.1410109739

- q-position: [    0.0000000,    0.0000000,    0.1122449 ]
  distance:    0.0226665
  band:
  - # 1
    frequency:    0.8559210359
  - # 2
    frequency:    0.9170067356
  - # 3
    frequency:    1.0264906124
  - # 4
    frequency:    1.2050275308
  - # 5
    frequency:    1.2133141702
  - # 6
    frequency:    1.2658950128
  - # 7
    frequency:    2.0820293679
  - # 8
    frequency:    2.2412668524
  - # 9
    frequency:    2.3583368329
  - # 10
    frequency:    2.4272152457
  - # 11
    frequency:    2.4751291420
  - # 12
    frequency:    2.8662210182
  - # 13
    frequency:    3.6105140845
  - # 14
    frequency:    3.8449464520
  - # 15
    frequency:    3.9175048837
  - # 16
    frequency:    3.9182207057
  - # 17
    frequency:    4.2845443671
  - # 18
    frequency:    4.6526686812
  - # 19
    frequency:    5.9501043466
  - # 20
    frequency:    5.9852655219
  - # 21
    frequency:    6.3090187566
  - # 22
    frequency:    6.3868142220
  - # 23
    frequency:    6.6572887864
  - # 24
    frequency:    7.0443654530
  - # 25
    frequency:    8.0978746798
  - # 26
    frequency:    8.7140143912
  - # 27
    frequency:    8.8153920268
  - # 28
    frequency:    9.0568595492
  - # 29
    frequency:    9.2166994743
  - # 30
    frequency:   13.1630354054

- q-position: [    0.0000000,    0.0000000,    0.1224490 ]
  distance:    0.0247270
  band:
  - # 1
    frequency:    0.8695691295
  - # 2
    frequency:    0.9858546313
  - # 3
    frequency:    1.0738395264
  - # 4
    frequency:    1.2472999493
  - # 5
    frequency:    1.2929045421
  - # 6
    frequency:    1.2938372001
  - # 7
    frequency:    2.0842315910
  - # 8
    frequency:    2.2428462604
  - # 9
    frequency:    2.3588797434
  - # 10
    frequency:    2.4418571867
  - # 11
    frequency:    2.5073010969
  - # 12
    frequency:    2.8860780431
  - # 13
    frequency:    3.7027590554
  - # 14
    frequency:    3.8625920506
  - # 15
    frequency:    3.9330042710
  - # 16
    frequency:    3.9454015127
  - # 17
    frequency:    4.3497548657
  - # 18
    frequency:    4.6670577148
  - # 19
    frequency:    5.9368194074
  - # 20
    frequency:    5.9583307224
  - # 21
    frequency:    6.3012447922
  - # 22
    frequency:    6.3184245158
  - # 23
    frequency:    6.6840971378
  - # 24
    frequency:    7.0679439943
  - # 25
    frequency:    8.1005918577
  - # 26
    frequency:    8.7099991452
  - # 27
    frequency:    8.8144485007
  - # 28
    frequency:    9.0668133393
  - # 29
    frequency:    9.2928629213
  - # 30
    frequency:   13.1846441609

- q-position: [    0.0000000,    0.0000000,    0.1326531 ]
  distance:    0.0267876
  band:
  - # 1
    frequency:    0.8774896242
  - # 2
    frequency:    1.0511191655
  - # 3
    frequency:    1.1153345931
  - # 4
    frequency:    1.2896498569
  - # 5
    frequency:    1.3269994524
  - # 6
    frequency:    1.3661402586
  - # 7
    frequency:    2.0867273259
  - # 8
    frequency:    2.2387118603
  - # 9
    frequency:    2.3603172797
  - # 10
    frequency:    2.4591714503
  - # 11
    frequency:    2.5480667745
  - # 12
    frequency:    2.9059470933
  - # 13
    frequency:    3.7831263331
  - # 14
    frequency:    3.8802604644
  - # 15
    frequency:    3.9493086486
  - # 16
    frequency:    3.9778410338
  - # 17
    frequency:    4.4257070845
  - # 18
    frequency:    4.6830331883
  - # 19
    frequency:    5.9238355731
  - # 20
    frequency:    5.9315432535
  - # 21
    frequency:    6.2110544498
  - # 22
    frequency:    6.3284081227
  - # 23
    frequency:    6.7098125754
  - # 24
    frequency:    7.0916779795
  - # 25
    frequency:    8.1026910341
  - # 26
    frequency:    8.7074374363
  - # 27
    frequency:    8.8132367486
  - # 28
    frequency:    9.0758112912
  - # 29
    frequency:    9.3742570541
  - # 30
    frequency:   13.2053554998

- q-position: [    0.0000000,    0.0000000,    0.1428571 ]
  distance:    0.0288482
  band:
  - # 1
    frequency:    0.8824068863
  - # 2
    frequency:    1.1126018465
  - # 3
    frequency:    1.1468936993
  - # 4
    frequency:    1.3315550962
  - # 5
    frequency:    1.3661273092
  - # 6
    frequency:    1.4332067290
  - # 7
    frequency:    2.0895289098
  - # 8
    frequency:    2.2309784520
  - # 9
    frequency:    2.3627522129
  - # 10
    frequency:    2.4794450687
  - # 11
    frequency:    2.5948418306
  - # 12
    frequency:    2.9255532511
  - # 13
    frequency:    3.8505504610
  - # 14
    frequency:    3.8976454971
  - # 15
    frequency:    3.9662053172
  - # 16
    frequency:    4.0153497276
  - # 17
    frequency:    4.5122773653
  - # 18
    frequency:    4.7006225288
  - # 19
    frequency:    5.9048572884
  - # 20
    frequency:    5.9114629416
  - # 21
    frequency:    6.1168073433
  - # 22
    frequency:    6.3389153451
  - # 23
    frequency:    6.7342966971
  - # 24
    frequency:    7.1153143694
  - # 25
    frequency:    8.1041389250
  - # 26
    frequency:    8.7062872531
  - # 27
    frequency:    8.8117181995
  - # 28
    frequency:    9.0837640544
  - # 29
    frequency:    9.4604604924
  - # 30
    frequency:   13.2247092684

- q-position: [    0.0000000,    0.0000000,    0.1530612 ]
  distance:    0.0309088
  band:
  - # 1
    frequency:    0.8854299392
  - # 2
    frequency:    1.1681662838
  - # 3
    frequency:    1.1701372813
  - # 4
    frequency:    1.3725365001
  - # 5
    frequency:    1.4099515044
  - # 6
    frequency:    1.4943832527
  - # 7
    frequency:    2.0926364932
  - # 8
    frequency:    2.2213290278
  - # 9
    frequency:    2.3662712254
  - # 10
    frequency:    2.5029493672
  - # 11
    frequency:    2.6454593558
  - # 12
    frequency:    2.9446449210
  - # 13
    frequency:    3.9066214749
  - # 14
    frequency:    3.9144558785
  - # 15
    frequency:    3.9834324603
  - # 16
    frequency:    4.0565084235
  - # 17
    frequency:    4.6079477694
  - # 18
    frequency:    4.7198277265
  - # 19
    frequency:    5.8782198089
  - # 20
    frequency:    5.9000860560
  - # 21
    frequency:    6.0190847582
  - # 22
    frequency:    6.3498898079
  - # 23
    frequency:    6.7574206090
  - # 24
    frequency:    7.1386231550
  - # 25
    frequency:    8.1049519534
  - # 26
    frequency:    8.7064568369
  - # 27
    frequency:    8.8098544651
  - # 28
    frequency:    9.0905936094
  - # 29
    frequency:    9.5510053102
  - # 30
    frequency:   13.2422730669

- q-position: [    0.0000000,    0.0000000,    0.1632653 ]
  distance:    0.0329694
  band:
  - # 1
    frequency:    0.8869881838
  - # 2
    frequency:    1.1808587270
  - # 3
    frequency:    1.2235992694
  - # 4
    frequency:    1.4121675909
  - # 5
    frequency:    1.4559230430
  - # 6
    frequency:    1.5499985034
  - # 7
    frequency:    2.0960325194
  - # 8
    frequency:    2.2109612210
  - # 9
    frequency:    2.3709468591
  - # 10
    frequency:    2.5299253456
  - # 11
    frequency:    2.6982703710
  - # 12
    frequency:    2.9629968435
  - # 13
    frequency:    3.9304256704
  - # 14
    frequency:    3.9547273477
  - # 15
    frequency:    4.0006694578
  - # 16
    frequency:    4.0991232333
  - # 17
    frequency:    4.7101434153
  - # 18
    frequency:    4.7406195461
  - # 19
    frequency:    5.8515727425
  - # 20
    frequency:    5.8902101218
  - # 21
    frequency:    5.9184925573
  - # 22
    frequency:    6.3612734339
  - # 23
    frequency:    6.7790654934
  - # 24
    frequency:    7.1613976003
  - # 25
    frequency:    8.1051958855
  - # 26
    frequency:    8.7078112159
  - # 27
    frequency:    8.8076081070
  - # 28
    frequency:    9.0962317507
  - # 29
    frequency:    9.6453811892
  - # 30
    frequency:   13.2576472486

- q-position: [    0.0000000,    0.0000000,    0.1734694 ]
  distance:    0.0350300
  band:
  - # 1
    frequency:    0.8872110600
  - # 2
    frequency:    1.1869922340
  - # 3
    frequency:    1.2729070436
  - # 4
    frequency:    1.4500851450
  - # 5
    frequency:    1.5015702442
  - # 6
    frequency:    1.6003870424
  - # 7
    frequency:    2.0996759848
  - # 8
    frequency:    2.2007371959
  - # 9
    frequency:    2.3768394819
  - # 10
    frequency:    2.5605683589
  - # 11
    frequency:    2.7520382356
  - # 12
    frequency:    2.9804115828
  - # 13
    frequency:    3.9453233658
  - # 14
    frequency:    3.9981678089
  - # 15
    frequency:    4.0175240640
  - # 16
    frequency:    4.1414318805
  - # 17
    frequency:    4.7629333660
  - # 18
    frequency:    4.8158242640
  - # 19
    frequency:    5.8156739928
  - # 20
    frequency:    5.8248547029
  - # 21
    frequency:    5.8825301196
  - # 22
    frequency:    6.3730068921
  - # 23
    frequency:    6.7991234407
  - # 24
    frequency:    7.1834543454
  - # 25
    frequency:    8.1049820998
  - # 26
    frequency:    8.7101807891
  - # 27
    frequency:    8.8049434469
  - # 28
    frequency:    9.1006193430
  - # 29
    frequency:    9.7430412558
  - # 30
    frequency:   13.2704688954

- q-position: [    0.0000000,    0.0000000,    0.1836735 ]
  distance:    0.0370906
  band:
  - # 1
    frequency:    0.8860825741
  - # 2
    frequency:    1.1881785386
  - # 3
    frequency:    1.3180310263
  - # 4
    frequency:    1.4859990331
  - # 5
    frequency:    1.5450634636
  - # 6
    frequency:    1.6458535614
  - # 7
    frequency:    2.1034971230
  - # 8
    frequency:    2.1913166066
  - # 9
    frequency:    2.3839979024
  - # 10
    frequency:    2.5950139216
  - # 11
    frequency:    2.8058390650
  - # 12
    frequency:    2.9967195654
  - # 13
    frequency:    3.9589587286
  - # 14
    frequency:    4.0335148635
  - # 15
    frequency:    4.0391280114
  - # 16
    frequency:    4.1826215854
  - # 17
    frequency:    4.7866673660
  - # 18
    frequency:    4.9218754927
  - # 19
    frequency:    5.7113293024
  - # 20
    frequency:    5.7980024475
  - # 21
    frequency:    5.8780324643
  - # 22
    frequency:    6.3850300479
  - # 23
    frequency:    6.8174984034
  - # 24
    frequency:    7.2046334778
  - # 25
    frequency:    8.1044612434
  - # 26
    frequency:    8.7133713561
  - # 27
    frequency:    8.8018274107
  - # 28
    frequency:    9.1037060879
  - # 29
    frequency:    9.8434093442
  - # 30
    frequency:   13.2804149246

- q-position: [    0.0000000,    0.0000000,    0.1938776 ]
  distance:    0.0391512
  band:
  - # 1
    frequency:    0.8835098687
  - # 2
    frequency:    1.1855968191
  - # 3
    frequency:    1.3589972748
  - # 4
    frequency:    1.5196993372
  - # 5
    frequency:    1.5851666783
  - # 6
    frequency:    1.6866493027
  - # 7
    frequency:    2.1073933535
  - # 8
    frequency:    2.1832397170
  - # 9
    frequency:    2.3924573984
  - # 10
    frequency:    2.6333267532
  - # 11
    frequency:    2.8589956669
  - # 12
    frequency:    3.0117778229
  - # 13
    frequency:    3.9711867289
  - # 14
    frequency:    4.0480469502
  - # 15
    frequency:    4.0787334600
  - # 16
    frequency:    4.2225667933
  - # 17
    frequency:    4.8116834756
  - # 18
    frequency:    5.0251627657
  - # 19
    frequency:    5.6062438927
  - # 20
    frequency:    5.7709521162
  - # 21
    frequency:    5.8781347648
  - # 22
    frequency:    6.3972824105
  - # 23
    frequency:    6.8341071853
  - # 24
    frequency:    7.2247986351
  - # 25
    frequency:    8.1038152765
  - # 26
    frequency:    8.7171746896
  - # 27
    frequency:    8.7982303917
  - # 28
    frequency:    9.1054506134
  - # 29
    frequency:    9.9458883225
  - # 30
    frequency:   13.2872044791

- q-position: [    0.0000000,    0.0000000,    0.2040816 ]
  distance:    0.0412117
  band:
  - # 1
    frequency:    0.8793580821
  - # 2
    frequency:    1.1801371181
  - # 3
    frequency:    1.3958897091
  - # 4
    frequency:    1.5510589171
  - # 5
    frequency:    1.6210594373
  - # 6
    frequency:    1.7229634294
  - # 7
    frequency:    2.1112274106
  - # 8
    frequency:    2.1769707475
  - # 9
    frequency:    2.4022345522
  - # 10
    frequency:    2.6754949434
  - # 11
    frequency:    2.9110320364
  - # 12
    frequency:    3.0254676134
  - # 13
    frequency:    3.9819083736
  - # 14
    frequency:    4.0603785853
  - # 15
    frequency:    4.1174217044
  - # 16
    frequency:    4.2614505146
  - # 17
    frequency:    4.8378110737
  - # 18
    frequency:    5.1223754055
  - # 19
    frequency:    5.5013270818
  - # 20
    frequency:    5.7436402860
  - # 21
    frequency:    5.8848420003
  - # 22
    frequency:    6.4097035718
  - # 23
    frequency:    6.8488804098
  - # 24
    frequency:    7.2438371765
  - # 25
    frequency:    8.1032488972
  - # 26
    frequency:    8.7213787337
  - # 27
    frequency:    8.7941271194
  - # 28
    frequency:    9.1058207546
  - # 29
    frequency:   10.0498690644
  - # 30
    frequency:   13.2906007388

- q-position: [    0.0000000,    0.0000000,    0.2142857 ]
  distance:    0.0432723
  band:
  - # 1
    frequency:    0.8734724699
  - # 2
    frequency:    1.1725161497
  - # 3
    frequency:    1.4288493435
  - # 4
    frequency:    1.5800303736
  - # 5
    frequency:    1.6522021827
  - # 6
    frequency:    1.7549313427
  - # 7
    frequency:    2.1148284423
  - # 8
    frequency:    2.1729117475
  - # 9
    frequency:    2.4133193677
  - # 10
    frequency:    2.7214302835
  - # 11
    frequency:    2.9616368161
  - # 12
    frequency:    3.0376910857
  - # 13
    frequency:    3.9910687007
  - # 14
    frequency:    4.0695773990
  - # 15
    frequency:    4.1552484673
  - # 16
    frequency:    4.2995315785
  - # 17
    frequency:    4.8648530023
  - # 18
    frequency:    5.2098856911
  - # 19
    frequency:    5.3976625922
  - # 20
    frequency:    5.7160048623
  - # 21
    frequency:    5.9008105941
  - # 22
    frequency:    6.4222336311
  - # 23
    frequency:    6.8617634364
  - # 24
    frequency:    7.2616604508
  - # 25
    frequency:    8.1029811365
  - # 26
    frequency:    8.7257766918
  - # 27
    frequency:    8.7894975145