  10   80
1 1
     2.404046420397892     0.000000000000000    -0.000000000000000
     0.000000000000000     2.404046420397896    -0.000000000000000
     0.000000000000000    -0.000000000000000     4.137305147325357
1 2
    -0.027316541086387     0.079272959671524     0.095472593510255
     0.079272959671524    -0.027316541086387    -0.095472593510255
     0.095545533348366    -0.095545533348366    -0.156790860237042
1 3
    -0.027316541086387     0.079272959671524    -0.095472593510255
     0.079272959671524    -0.027316541086387     0.095472593510255
    -0.095545533348366     0.095545533348366    -0.156790860237042
1 4
    -0.003805526758961     0.000000000000000    -0.000000000000000
    -0.000000000000000    -0.003805526758961    -0.000000000000000
    -0.000000000000000     0.000000000000000     0.010791370919979
1 5
    -0.027316541086387    -0.079272959671524     0.095472593510255
    -0.079272959671524    -0.027316541086387     0.095472593510255
     0.095545533348366     0.095545533348366    -0.156790860237042
1 6
    -0.006033032564358     0.000000000000000    -0.000000000000000
    -0.000000000000000    -0.319020627899515    -0.000000000000000
     0.000000000000000     0.000000000000000     0.057465270160649
1 7
    -0.319020627899515    -0.000000000000000    -0.000000000000000
    -0.000000000000000    -0.006033032564358    -0.000000000000000
    -0.000000000000000    -0.000000000000000     0.057465270160649
1 8
    -0.027316541086387    -0.079272959671524    -0.095472593510255
    -0.079272959671524    -0.027316541086387    -0.095472593510255
    -0.095545533348366    -0.095545533348366    -0.156790860237042
1 9
    -0.104554258402177     0.244812608453036    -0.003677281946064
     0.244812608453036    -0.104554258402177     0.003677281946064
    -0.003864458983533     0.003864458983533     0.143285307065163
1 10
     0.111838609595652    -0.052470908626270    -0.000000000000000
    -0.052470908626270     0.111838609595653     0.000000000000000
     0.000000000000000    -0.000000000000000    -0.303444220572331
1 11
     0.111838609595652     0.052470908626270    -0.000000000000000
     0.052470908626270     0.111838609595653     0.000000000000000
     0.000000000000000     0.000000000000000    -0.303444220572331
1 12
    -0.104554258402177     0.244812608453036     0.003677281946064
     0.244812608453036    -0.104554258402177    -0.003677281946064
     0.003864458983533    -0.003864458983533     0.143285307065163
1 13
    -0.050474147332498    -0.000062133034776    -0.000000000000000
     0.000062133034776    -0.050474147332499     0.000000000000000
    -0.000000000000000     0.000000000000000    -0.060455179360058
1 14
    -0.104554258402177    -0.244812608453036     0.003677281946064
    -0.244812608453036    -0.104554258402177     0.003677281946064
     0.003864458983533     0.003864458983533     0.143285307065163
1 15
    -0.104554258402177    -0.244812608453036    -0.003677281946064
    -0.244812608453036    -0.104554258402177    -0.003677281946064
    -0.003864458983533    -0.003864458983533     0.143285307065163
1 16
    -0.050474147332498     0.000062133034776    -0.000000000000000
    -0.000062133034776    -0.050474147332499     0.000000000000000
    -0.000000000000000     0.000000000000000    -0.060455179360058
1 17
     0.456652192299308    -0.182709691122371     0.044499636712384
    -0.024218457972533    -0.417816038306446    -0.729536089412056
     0.067287611396564    -0.803361137271281     0.052424015625058
1 18
    -0.417816038306446     0.024218457972533     0.729536089412055
     0.182709691122371     0.456652192299309     0.044499636712384
     0.803361137271281     0.067287611396564     0.052424015625058
1 19
    -0.000511506680330     0.003350407479120    -0.097714670154428
    -0.024530428091284    -0.172117203134956    -0.024983014104684
    -0.102417521877565     0.013100366094156    -0.102447722407995
1 20
    -0.172117203134956     0.024530428091284    -0.024983014104684
    -0.003350407479120    -0.000511506680330     0.097714670154428
     0.013100366094156     0.102417521877565    -0.102447722407995
1 21
    -0.000511506680330     0.003350407479120     0.097714670154428
    -0.024530428091284    -0.172117203134956     0.024983014104684
     0.102417521877565    -0.013100366094156    -0.102447722407995
1 22
     0.456652192299309    -0.182709691122371    -0.044499636712384
    -0.024218457972533    -0.417816038306446     0.729536089412056
    -0.067287611396564     0.803361137271281     0.052424015625058
1 23
    -0.172117203134956     0.024530428091284     0.024983014104684
    -0.003350407479120    -0.000511506680330    -0.097714670154428
    -0.013100366094156    -0.102417521877565    -0.102447722407995
1 24
    -0.417816038306446     0.024218457972533    -0.729536089412055
     0.182709691122372     0.456652192299309    -0.044499636712384
    -0.803361137271281    -0.067287611396564     0.052424015625058
1 25
     0.456652192299308     0.182709691122371     0.044499636712384
     0.024218457972533    -0.417816038306446     0.729536089412056
     0.067287611396564     0.803361137271281     0.052424015625058
1 26
    -0.000511506680330    -0.003350407479120     0.097714670154428
     0.024530428091284    -0.172117203134956    -0.024983014104684
     0.102417521877565     0.013100366094156    -0.102447722407995
1 27
    -0.417816038306446    -0.024218457972533    -0.729536089412055
    -0.182709691122371     0.456652192299309     0.044499636712384
    -0.803361137271281     0.067287611396564     0.052424015625058
1 28
    -0.172117203134956    -0.024530428091284    -0.024983014104684
     0.003350407479120    -0.000511506680330    -0.097714670154428
     0.013100366094156    -0.102417521877565    -0.102447722407995
1 29
    -0.417816038306446    -0.024218457972533     0.729536089412055
    -0.182709691122372     0.456652192299309    -0.044499636712384
     0.803361137271281    -0.067287611396564     0.052424015625058
1 30
     0.456652192299309     0.182709691122371    -0.044499636712384
     0.024218457972533    -0.417816038306446    -0.729536089412057
    -0.067287611396564    -0.803361137271281     0.052424015625058
1 31
    -0.172117203134956    -0.024530428091284     0.024983014104684
     0.003350407479120    -0.000511506680330     0.097714670154428
    -0.013100366094156     0.102417521877565    -0.102447722407995
1 32
    -0.000511506680330    -0.003350407479120    -0.097714670154428
     0.024530428091284    -0.172117203134956     0.024983014104684
    -0.102417521877565    -0.013100366094156    -0.102447722407995
1 33
    -0.033154071466458    -0.028445950649128     0.040917648957943
    -0.002183032906944     0.021978602456445    -0.163888502592570
    -0.011556149541612    -0.067300845211848     0.168986207265065
1 34
    -0.000736289546870    -0.000000000000000    -0.000000000000000
     0.000000000000000     0.042682300974672     0.004991823475264
    -0.000000000000000     0.000123257107034    -0.018544079772629
1 35
     0.113628935221650     0.000000000000000     0.000000000000000
     0.000000000000000    -0.162937477425115    -0.093499551183873
     0.000000000000000    -0.013610179404915    -0.483568859258633
1 36
    -0.033154071466458     0.028445950649128     0.040917648957943
     0.002183032906944     0.021978602456445     0.163888502592569
    -0.011556149541612     0.067300845211848     0.168986207265065
1 37
     0.113628935221650    -0.000000000000000     0.000000000000000
    -0.000000000000000    -0.162937477425115     0.093499551183874
     0.000000000000000     0.013610179404915    -0.483568859258634
1 38
    -0.033154071466458    -0.028445950649128    -0.040917648957943
    -0.002183032906944     0.021978602456445     0.163888502592569
     0.011556149541612     0.067300845211848     0.168986207265065
1 39
    -0.033154071466458     0.028445950649128    -0.040917648957943
     0.002183032906944     0.021978602456445    -0.163888502592570
     0.011556149541612    -0.067300845211848     0.168986207265065
1 40
    -0.000736289546870    -0.000000000000000     0.000000000000000
     0.000000000000000     0.042682300974672    -0.004991823475264
    -0.000000000000000    -0.000123257107034    -0.018544079772629
1 41
    -0.162937477425115    -0.000000000000000    -0.093499551183873
     0.000000000000000     0.113628935221650     0.000000000000000
    -0.013610179404915    -0.000000000000000    -0.483568859258634
1 42
     0.021978602456445    -0.002183032906944    -0.163888502592569
    -0.028445950649128    -0.033154071466458     0.040917648957943
    -0.067300845211848    -0.011556149541612     0.168986207265065
1 43
     0.021978602456445     0.002183032906944     0.163888502592569
     0.028445950649128    -0.033154071466458     0.040917648957943
     0.067300845211848    -0.011556149541612     0.168986207265065
1 44
     0.042682300974672     0.000000000000000     0.004991823475264
     0.000000000000000    -0.000736289546870     0.000000000000000
     0.000123257107034     0.000000000000000    -0.018544079772629
1 45
     0.021978602456445     0.002183032906944    -0.163888502592569
     0.028445950649128    -0.033154071466458    -0.040917648957943
    -0.067300845211848     0.011556149541612     0.168986207265065
1 46
    -0.162937477425115    -0.000000000000000     0.093499551183873
     0.000000000000000     0.113628935221650     0.000000000000000
     0.013610179404915    -0.000000000000000    -0.483568859258634
1 47
     0.042682300974672     0.000000000000000    -0.004991823475264
     0.000000000000000    -0.000736289546870     0.000000000000000
    -0.000123257107034     0.000000000000000    -0.018544079772629
1 48
     0.021978602456445    -0.002183032906944     0.163888502592569
    -0.028445950649128    -0.033154071466458    -0.040917648957943
     0.067300845211848     0.011556149541612     0.168986207265065
1 49
    -0.448712334338163     0.007533619862100    -0.318046320849362
     0.007533619862100    -0.448712334338164     0.318046320849363
    -0.282853703530706     0.282853703530706    -0.761401337471924
1 50
     0.014295896925482    -0.022432331922774    -0.021911368658071
    -0.022432331922774     0.014295896925482     0.021911368658071
    -0.018580038300180     0.018580038300180     0.018697678689371
1 51
    -0.106872342557096    -0.215354743318182     0.186627811768420
    -0.215354743318182    -0.106872342557096    -0.186627811768420
     0.163467377063231    -0.163467377063231     0.129327953862158
1 52
     0.001155347610090    -0.010428333068891    -0.006566369411878
    -0.010428333068891     0.001155347610090     0.006566369411878
    -0.022241972123865     0.022241972123865     0.035781375721764
1 53
     0.128487070445289     0.132404733257209    -0.069766340716246
     0.046576407506948    -0.006599995391069    -0.012859225974030
    -0.134223932435196    -0.103338005883618    -0.001832911944398
1 54
    -0.020287306180381    -0.001946303989079     0.002025901852068
     0.114787847691682     0.169574713769339     0.057788134365598
     0.061233629392977     0.098947857400653    -0.012426710174575
1 55
     0.169574713769338     0.114787847691682    -0.057788134365598
    -0.001946303989079    -0.020287306180381    -0.002025901852068
    -0.098947857400653    -0.061233629392977    -0.012426710174575
1 56
    -0.006599995391069     0.046576407506948     0.012859225974030
     0.132404733257209     0.128487070445289     0.069766340716246
     0.103338005883618     0.134223932435196    -0.001832911944398
1 57
    -0.106872342557096    -0.215354743318182    -0.186627811768420
    -0.215354743318182    -0.106872342557096     0.186627811768420
    -0.163467377063231     0.163467377063231     0.129327953862158
1 58
    -0.448712334338164     0.007533619862100     0.318046320849362
     0.007533619862100    -0.448712334338164    -0.318046320849363
     0.282853703530706    -0.282853703530706    -0.761401337471924
1 59
     0.001155347610090    -0.010428333068891     0.006566369411878
    -0.010428333068891     0.001155347610090    -0.006566369411878
     0.022241972123865    -0.022241972123865     0.035781375721764
1 60
     0.014295896925482    -0.022432331922774     0.021911368658071
    -0.022432331922774     0.014295896925482    -0.021911368658071
     0.018580038300180    -0.018580038300180     0.018697678689371
1 61
    -0.020287306180381    -0.001946303989079    -0.002025901852068
     0.114787847691682     0.169574713769339    -0.057788134365598
    -0.061233629392977    -0.098947857400653    -0.012426710174575
1 62
    -0.006599995391069     0.046576407506948    -0.012859225974030
     0.132404733257209     0.128487070445289    -0.069766340716246
    -0.103338005883618    -0.134223932435196    -0.001832911944398
1 63
     0.128487070445289     0.132404733257209     0.069766340716246
     0.046576407506948    -0.006599995391069     0.012859225974030
     0.134223932435196     0.103338005883618    -0.001832911944398
1 64
     0.169574713769338     0.114787847691682     0.057788134365598
    -0.001946303989079    -0.020287306180381     0.002025901852068
     0.098947857400653     0.061233629392977    -0.012426710174575
1 65
    -0.006599995391069    -0.046576407506948     0.012859225974030
    -0.132404733257209     0.128487070445289    -0.069766340716246
     0.103338005883618    -0.134223932435196    -0.001832911944398
1 66
     0.001155347610090     0.010428333068891    -0.006566369411878
     0.010428333068891     0.001155347610090    -0.006566369411878
    -0.022241972123865    -0.022241972123865     0.035781375721764
1 67
    -0.448712334338163    -0.007533619862100    -0.318046320849362
    -0.007533619862100    -0.448712334338164    -0.318046320849363
    -0.282853703530706    -0.282853703530706    -0.761401337471924
1 68
     0.128487070445289    -0.132404733257209    -0.069766340716246
    -0.046576407506948    -0.006599995391069     0.012859225974030
    -0.134223932435196     0.103338005883618    -0.001832911944398
1 69
     0.169574713769338    -0.114787847691682    -0.057788134365598
     0.001946303989079    -0.020287306180381     0.002025901852068
    -0.098947857400653     0.061233629392977    -0.012426710174575
1 70
    -0.106872342557096     0.215354743318182     0.186627811768420
     0.215354743318182    -0.106872342557096     0.186627811768420
     0.163467377063231     0.163467377063231     0.129327953862158
1 71
     0.014295896925482     0.022432331922774    -0.021911368658071
     0.022432331922774     0.014295896925482    -0.021911368658071
    -0.018580038300180    -0.018580038300180     0.018697678689371
1 72
    -0.020287306180381     0.001946303989079     0.002025901852068
    -0.114787847691682     0.169574713769339    -0.057788134365598
     0.061233629392977    -0.098947857400653    -0.012426710174575
1 73
    -0.448712334338163    -0.007533619862100     0.318046320849362
    -0.007533619862100    -0.448712334338164     0.318046320849363
     0.282853703530706     0.282853703530706    -0.761401337471924
1 74
    -0.006599995391069    -0.046576407506948    -0.012859225974030
    -0.132404733257209     0.128487070445289     0.069766340716246
    -0.103338005883618     0.134223932435196    -0.001832911944398
1 75
     0.128487070445289    -0.132404733257209     0.069766340716246
    -0.046576407506948    -0.006599995391069    -0.012859225974030
     0.134223932435196    -0.103338005883618    -0.001832911944398
1 76
     0.001155347610090     0.010428333068891     0.006566369411878
     0.010428333068891     0.001155347610090     0.006566369411878
     0.022241972123865     0.022241972123865     0.035781375721764
1 77
    -0.106872342557096     0.215354743318182    -0.186627811768420
     0.215354743318182    -0.106872342557096    -0.186627811768420
    -0.163467377063231    -0.163467377063231     0.129327953862158
1 78
    -0.020287306180381     0.001946303989079    -0.002025901852068
    -0.114787847691682     0.169574713769339     0.057788134365598
    -0.061233629392977     0.098947857400653    -0.012426710174575
1 79
     0.169574713769338    -0.114787847691682     0.057788134365598
     0.001946303989079    -0.020287306180381    -0.002025901852068
     0.098947857400653    -0.061233629392977    -0.012426710174575
1 80
     0.014295896925482     0.022432331922774     0.021911368658071
     0.022432331922774     0.014295896925482     0.021911368658071
     0.018580038300180     0.018580038300180     0.018697678689371
9 1
    -0.104554258402177     0.244812608453036    -0.003677281946064
     0.244812608453036    -0.104554258402177     0.003677281946064
    -0.003864458983533     0.003864458983533     0.143285307065163
9 2
     0.111838609595653    -0.052470908626270     0.000000000000000
    -0.052470908626270     0.111838609595652     0.000000000000000
     0.000000000000000    -0.000000000000000    -0.303444220572331
9 3
     0.111838609595653     0.052470908626270     0.000000000000000
     0.052470908626270     0.111838609595652    -0.000000000000000
    -0.000000000000000    -0.000000000000000    -0.303444220572331
9 4
    -0.104554258402177     0.244812608453036     0.003677281946064
     0.244812608453036    -0.104554258402177    -0.003677281946064
     0.003864458983533    -0.003864458983533     0.143285307065163
9 5
    -0.050474147332499    -0.000062133034776     0.000000000000000
     0.000062133034776    -0.050474147332498     0.000000000000000
     0.000000000000000     0.000000000000000    -0.060455179360058
9 6
    -0.104554258402177    -0.244812608453036     0.003677281946064
    -0.244812608453036    -0.104554258402177     0.003677281946064
     0.003864458983533     0.003864458983533     0.143285307065163
9 7
    -0.104554258402177    -0.244812608453036    -0.003677281946064
    -0.244812608453036    -0.104554258402177    -0.003677281946064
    -0.003864458983533    -0.003864458983533     0.143285307065163
9 8
    -0.050474147332499     0.000062133034776     0.000000000000000
    -0.000062133034776    -0.050474147332498     0.000000000000000
     0.000000000000000     0.000000000000000    -0.060455179360058
9 9
     2.404046420397896    -0.000000000000000    -0.000000000000001
    -0.000000000000000     2.404046420397892     0.000000000000000
    -0.000000000000000    -0.000000000000000     4.137305147325357
9 10
    -0.027316541086387     0.079272959671524     0.095472593510255
     0.079272959671524    -0.027316541086387    -0.095472593510255
     0.095545533348366    -0.095545533348366    -0.156790860237042
9 11
    -0.027316541086387     0.079272959671524    -0.095472593510255
     0.079272959671524    -0.027316541086387     0.095472593510255
    -0.095545533348366     0.095545533348366    -0.156790860237042
9 12
    -0.003805526758961     0.000000000000000    -0.000000000000000
     0.000000000000000    -0.003805526758961     0.000000000000000
    -0.000000000000000     0.000000000000000     0.010791370919979
9 13
    -0.027316541086387    -0.079272959671524     0.095472593510255
    -0.079272959671524    -0.027316541086387     0.095472593510255
     0.095545533348366     0.095545533348366    -0.156790860237042
9 14
    -0.006033032564358     0.000000000000000    -0.000000000000000
     0.000000000000000    -0.319020627899515     0.000000000000000
    -0.000000000000000     0.000000000000000     0.057465270160649
9 15
    -0.319020627899515     0.000000000000000    -0.000000000000000
    -0.000000000000000    -0.006033032564358     0.000000000000000
     0.000000000000000     0.000000000000000     0.057465270160649
9 16
    -0.027316541086387    -0.079272959671524    -0.095472593510255
    -0.079272959671524    -0.027316541086387    -0.095472593510255
    -0.095545533348366    -0.095545533348366    -0.156790860237042
9 17
    -0.417816038306446     0.024218457972533    -0.729536089412056
     0.182709691122371     0.456652192299308    -0.044499636712384
    -0.803361137271281    -0.067287611396564     0.052424015625058
9 18
    -0.172117203134956     0.024530428091284     0.024983014104684
    -0.003350407479120    -0.000511506680330    -0.097714670154428
    -0.013100366094156    -0.102417521877565    -0.102447722407995
9 19
     0.456652192299309    -0.182709691122372    -0.044499636712384
    -0.024218457972533    -0.417816038306446     0.729536089412055
    -0.067287611396564     0.803361137271281     0.052424015625058
9 20
    -0.000511506680330     0.003350407479120     0.097714670154428
    -0.024530428091284    -0.172117203134956     0.024983014104684
     0.102417521877565    -0.013100366094156    -0.102447722407995
9 21
    -0.172117203134956     0.024530428091284    -0.024983014104684
    -0.003350407479120    -0.000511506680330     0.097714670154428
     0.013100366094156     0.102417521877565    -0.102447722407995
9 22
    -0.000511506680330     0.003350407479120    -0.097714670154428
    -0.024530428091284    -0.172117203134956    -0.024983014104684
    -0.102417521877565     0.013100366094156    -0.102447722407995
9 23
    -0.417816038306446     0.024218457972533     0.729536089412056
     0.182709691122371     0.456652192299309     0.044499636712384
     0.803361137271281     0.067287611396564     0.052424015625058
9 24
     0.456652192299309    -0.182709691122371     0.044499636712384
    -0.024218457972533    -0.417816038306446    -0.729536089412055
     0.067287611396564    -0.803361137271281     0.052424015625058
9 25
    -0.417816038306446    -0.024218457972533     0.729536089412056
    -0.182709691122371     0.456652192299308    -0.044499636712384
     0.803361137271281    -0.067287611396564     0.052424015625058
9 26
     0.456652192299309     0.182709691122372    -0.044499636712384
     0.024218457972533    -0.417816038306446    -0.729536089412055
    -0.067287611396564    -0.803361137271281     0.052424015625058
9 27
    -0.172117203134956    -0.024530428091284     0.024983014104684
     0.003350407479120    -0.000511506680330     0.097714670154428
    -0.013100366094156     0.102417521877565    -0.102447722407995
9 28
    -0.000511506680330    -0.003350407479120    -0.097714670154428
     0.024530428091284    -0.172117203134956     0.024983014104684
    -0.102417521877565    -0.013100366094156    -0.102447722407995
9 29
     0.456652192299309     0.182709691122371     0.044499636712384
     0.024218457972533    -0.417816038306446     0.729536089412055
     0.067287611396564     0.803361137271281     0.052424015625058
9 30
    -0.000511506680330    -0.003350407479120     0.097714670154428
     0.024530428091284    -0.172117203134956    -0.024983014104684
     0.102417521877565     0.013100366094156    -0.102447722407995
9 31
    -0.417816038306446    -0.024218457972533    -0.729536089412057
    -0.182709691122371     0.456652192299309     0.044499636712384
    -0.803361137271281     0.067287611396564     0.052424015625058
9 32
    -0.172117203134956    -0.024530428091284    -0.024983014104684
     0.003350407479120    -0.000511506680330    -0.097714670154428
     0.013100366094156    -0.102417521877565    -0.102447722407995
9 33
     0.021978602456445     0.002183032906944    -0.163888502592570
     0.028445950649128    -0.033154071466458    -0.040917648957943
    -0.067300845211848     0.011556149541612     0.168986207265065
9 34
    -0.162937477425115     0.000000000000000     0.093499551183874
     0.000000000000000     0.113628935221650    -0.000000000000000
     0.013610179404915    -0.000000000000000    -0.483568859258634
9 35
     0.042682300974672    -0.000000000000000    -0.004991823475264
    -0.000000000000000    -0.000736289546870    -0.000000000000000
    -0.000123257107034     0.000000000000000    -0.018544079772629
9 36
     0.021978602456445    -0.002183032906944     0.163888502592569
    -0.028445950649128    -0.033154071466458    -0.040917648957943
     0.067300845211848     0.011556149541612     0.168986207265065
9 37
    -0.162937477425115    -0.000000000000000    -0.093499551183873
    -0.000000000000000     0.113628935221650    -0.000000000000000
    -0.013610179404915    -0.000000000000000    -0.483568859258633
9 38
     0.021978602456445    -0.002183032906944    -0.163888502592570
    -0.028445950649128    -0.033154071466458     0.040917648957943
    -0.067300845211848    -0.011556149541612     0.168986207265065
9 39
     0.021978602456445     0.002183032906944     0.163888502592569
     0.028445950649128    -0.033154071466458     0.040917648957943
     0.067300845211848    -0.011556149541612     0.168986207265065
9 40
     0.042682300974672    -0.000000000000000     0.004991823475264
     0.000000000000000    -0.000736289546870    -0.000000000000000
     0.000123257107034     0.000000000000000    -0.018544079772629
9 41
     0.113628935221650    -0.000000000000000     0.000000000000000
     0.000000000000000    -0.162937477425115     0.093499551183873
     0.000000000000000     0.013610179404915    -0.483568859258634
9 42
    -0.033154071466458    -0.028445950649128    -0.040917648957943
    -0.002183032906944     0.021978602456445     0.163888502592569
     0.011556149541612     0.067300845211848     0.168986207265065
9 43
    -0.033154071466458     0.028445950649128    -0.040917648957943
     0.002183032906944     0.021978602456445    -0.163888502592569
     0.011556149541612    -0.067300845211848     0.168986207265065
9 44
    -0.000736289546870    -0.000000000000000     0.000000000000000
    -0.000000000000000     0.042682300974672    -0.004991823475264
     0.000000000000000    -0.000123257107034    -0.018544079772629
9 45
    -0.033154071466458    -0.028445950649128     0.040917648957943
    -0.002183032906944     0.021978602456445    -0.163888502592569
    -0.011556149541612    -0.067300845211848     0.168986207265065
9 46
    -0.000736289546870    -0.000000000000000     0.000000000000000
    -0.000000000000000     0.042682300974672     0.004991823475264
     0.000000000000000     0.000123257107034    -0.018544079772629
9 47
     0.113628935221650    -0.000000000000000     0.000000000000000
     0.000000000000000    -0.162937477425115    -0.093499551183873
     0.000000000000000    -0.013610179404915    -0.483568859258634
9 48
    -0.033154071466458     0.028445950649128     0.040917648957943
     0.002183032906944     0.021978602456445     0.163888502592569
    -0.011556149541612     0.067300845211848     0.168986207265065
9 49
    -0.106872342557096    -0.215354743318182    -0.186627811768420
    -0.215354743318182    -0.106872342557096     0.186627811768420
    -0.163467377063231     0.163467377063231     0.129327953862158
9 50
    -0.448712334338164     0.007533619862100     0.318046320849363
     0.007533619862100    -0.448712334338163    -0.318046320849362
     0.282853703530706    -0.282853703530706    -0.761401337471924
9 51
     0.001155347610090    -0.010428333068891     0.006566369411878
    -0.010428333068891     0.001155347610090    -0.006566369411878
     0.022241972123865    -0.022241972123865     0.035781375721764
9 52
     0.014295896925482    -0.022432331922774     0.021911368658071
    -0.022432331922774     0.014295896925482    -0.021911368658071
     0.018580038300180    -0.018580038300180     0.018697678689371
9 53
    -0.020287306180381    -0.001946303989079    -0.002025901852068
     0.114787847691682     0.169574713769338    -0.057788134365598
    -0.061233629392977    -0.098947857400653    -0.012426710174575
9 54
    -0.006599995391069     0.046576407506948    -0.012859225974030
     0.132404733257209     0.128487070445289    -0.069766340716246
    -0.103338005883618    -0.134223932435196    -0.001832911944398
9 55
     0.128487070445289     0.132404733257209     0.069766340716246
     0.046576407506948    -0.006599995391069     0.012859225974030
     0.134223932435196     0.103338005883618    -0.001832911944398
9 56
     0.169574713769339     0.114787847691682     0.057788134365598
    -0.001946303989079    -0.020287306180381     0.002025901852068
     0.098947857400653     0.061233629392977    -0.012426710174575
9 57
    -0.448712334338164     0.007533619862100    -0.318046320849363
     0.007533619862100    -0.448712334338163     0.318046320849362
    -0.282853703530706     0.282853703530706    -0.761401337471924
9 58
     0.014295896925482    -0.022432331922774    -0.021911368658071
    -0.022432331922774     0.014295896925482     0.021911368658071
    -0.018580038300180     0.018580038300180     0.018697678689371
9 59
    -0.106872342557096    -0.215354743318182     0.186627811768420
    -0.215354743318182    -0.106872342557096    -0.186627811768420
     0.163467377063231    -0.163467377063231     0.129327953862158
9 60
     0.001155347610090    -0.010428333068891    -0.006566369411878
    -0.010428333068891     0.001155347610090     0.006566369411878
    -0.022241972123865     0.022241972123865     0.035781375721764
9 61
     0.128487070445289     0.132404733257209    -0.069766340716246
     0.046576407506948    -0.006599995391069    -0.012859225974030
    -0.134223932435196    -0.103338005883618    -0.001832911944398
9 62
    -0.020287306180381    -0.001946303989079     0.002025901852068
     0.114787847691682     0.169574713769338     0.057788134365598
     0.061233629392977     0.098947857400653    -0.012426710174575
9 63
     0.169574713769339     0.114787847691682    -0.057788134365598
    -0.001946303989079    -0.020287306180381    -0.002025901852068
    -0.098947857400653    -0.061233629392977    -0.012426710174575
9 64
    -0.006599995391069     0.046576407506948     0.012859225974030
     0.132404733257209     0.128487070445289     0.069766340716246
     0.103338005883618     0.134223932435196    -0.001832911944398
9 65
    -0.448712334338164    -0.007533619862100     0.318046320849363
    -0.007533619862100    -0.448712334338163     0.318046320849362
     0.282853703530706     0.282853703530706    -0.761401337471924
9 66
    -0.006599995391069    -0.046576407506948    -0.012859225974030