[{"__ndarray__": [[39, 39], "float64", [70.0, -1.3464057093036643e-13, 1.9762572894296414e-13, -1.346405709247647e-13, -6.179530113398043e-27, 1.976257289669144e-13, -1.3460877730564554e-25, -6.995356224602161e-43, 7.770559339285545e-27, -2.951791520771732e-24, 3.5292710286761832e-40, 3.9525145788592e-13, -4.426556249835632e-24, 8.116038570405339e-28, 5.928771868388405e-13, -1.608966634639987e-24, 4.047385963546331e-28, 1.9762572894296414e-13, -5.920175902210278e-13, 4.573770192924956e-13, 3.9525145788496074e-13, 4.573770193036837e-13, -5.920175902209279e-13, 1.4644325777648073e-23, 4.573770192982441e-13, 5.920175902181148e-13, 3.9525145789868717e-13, -5.920175902184143e-13, -7.266581611580495e-13, 9.39536964965537e-24, -1.0526794802127482e-11, 4.3396667185282256e-27, 9.075912133140502e-27, -1.6322182265038156e-24, -1.0526794802127728e-11, 1.3339492025875396e-27, -3.6458379057698104e-24, 2.6311696006437986e-27, 2.2481985222393465e-12, -1.3464057093036643e-13, 65.6950637657942, -2.7905388574405228, -4.3049362342052495, -1.5578859397293682e-13, -2.790538857439052, -9.897839852325822e-15, -1.8122606429330095e-29, -1.0499240655230414e-13, -3.018871324967475e-14, 2.093383916791653e-30, -5.581077714880942, -7.069743308043177e-14, -8.33737899797942e-16, -8.371616572320459, -5.075102763576524e-14, -4.892706191392341e-16, -2.7905388574405228, -1.213548008611359, -3.091388225593601, -5.58107771488084, -3.091388225592636, -1.213548008611807, 7.885074379539374e-13, -3.0913882255930605, 1.2135480086114425, -5.581077714880171, -1.213548008611302, -5.518484242817874, 4.671953842298752e-13, 1.7267531304479138, -1.7498157546706177e-15, -1.5685622278940427e-15, -1.1330611864302616e-13, 1.7267531304479673, -7.774320865066199e-16, -2.36540338689094e-13, -1.5814971848959606e-14, -3.179153697021077, 1.9762572894296414e-13, -2.7905388574405228, 68.00612542375994, -2.790538857440484, -1.1231326301133386e-13, -1.9938745762405425, 8.078873297290135e-14, -1.2959072886422984e-29, -7.523590470661054e-14, 1.1539103007165715e-13, -2.1475473993740608e-29, -3.9877491524800286, 1.5391231155250567e-13, 3.652571951211125e-16, -5.981623728719906, 1.1950767648576755e-13, 1.675954084447281e-16, -1.993874576240052, -0.653831203534526, -2.13670765390602, -3.987749152479952, -2.1367076539060563, -0.6538312035346521, -3.7578827667681715e-13, -2.136707653906088, 0.6538312035345473, -3.987749152480295, -0.6538312035344025, -3.4443700609750554, -2.7008035076360564e-13, -0.5527937677143805, 6.435889156779043e-16, 4.787899283652742e-16, 3.449892633424104e-14, -0.5527937677143433, 4.8495173705365725e-17, 6.592019399908794e-14, -1.07330302909814e-14, 1.0104763670476484, -1.346405709247647e-13, -4.3049362342052495, -2.790538857440484, 65.69506376579531, -1.5578859397292793e-13, -2.7905388574390138, -9.897839852171054e-15, -1.8122606429329122e-29, -1.0499240655230306e-13, -3.018871324604331e-14, 2.0933839163190316e-30, -5.5810777148808635, -7.069743307498313e-14, -8.337378997991194e-16, -8.371616572320342, -5.075102763379384e-14, -4.892706191398661e-16, -2.790538857440484, -1.2135480086104748, -3.091388225593923, -5.581077714880763, -3.091388225592957, -1.2135480086109225, 7.885074379342598e-13, -3.091388225593383, 1.2135480086105588, -5.581077714880094, -1.213548008610418, -5.51848424281643, 4.671953842172574e-13, 1.726753130460415, -1.7498157546726506e-15, -1.5685622279037418e-15, -1.1330611864084829e-13, 1.7267531304604655, -7.774320865075192e-16, -2.3654033868417106e-13, -1.5814971848959944e-14, -3.179153697027173, -6.179530113398043e-27, -1.5578859397293682e-13, -1.1231326301133386e-13, -1.5578859397292793e-13, 70.0, -1.1231326301135956e-13, 4.981794402107523e-27, -1.6650395599345916e-42, -4.239041844186137e-27, -5.3404496348320334e-27, -2.329333285913545e-42, -2.246265260226635e-13, -9.11231515290326e-27, 4.1880198979961426e-29, -3.3693978903403967e-13, 1.2309875846296254e-27, 2.0821553536245342e-29, -1.1231326301133386e-13, -3.588022215338739e-14, -1.199083718195936e-13, -2.246265260227148e-13, -1.1990837181959292e-13, -3.588022215337748e-14, -1.999105303552321e-26, -1.1990837181959342e-13, 3.5880222153361886e-14, -2.2462652602267401e-13, -3.588022215336588e-14, -1.9166881612626045e-13, -1.4626855371807827e-26, -3.761425986878742e-14, 1.1854650047114973e-28, 7.029207136514443e-29, 3.6555404976348435e-27, -3.761425986879766e-14, 1.8220567644653535e-29, 1.6753452893032458e-27, -1.3851520640946016e-27, 7.280182212884559e-14, 1.976257289669144e-13, -2.790538857439052, -1.9938745762405425, -2.7905388574390138, -1.1231326301135956e-13, 68.00612542375893, 8.078873297358513e-14, -1.2959072886426586e-29, -7.523590470663067e-14, 1.1539103008718378e-13, -2.1475473995784732e-29, -3.987749152481009, 1.5391231157579974e-13, 3.6525719511197447e-16, -5.981623728721378, 1.1950767649421452e-13, 1.6759540843983078e-16, -1.9938745762405425, -0.653831203531263, -2.1367076539078127, -3.9877491524809328, -2.1367076539078487, -0.6538312035313889, -3.7578827676222486e-13, -2.1367076539078806, 0.6538312035312841, -3.987749152481275, -0.6538312035311394, -3.444370060970322, -2.7008035081836783e-13, -0.5527937676657719, 6.435889156676871e-16, 4.787899283306213e-16, 3.449892634356427e-14, -0.552793767665735, 4.849517370948183e-17, 6.592019402058319e-14, -1.0733030290979902e-14, 1.0104763670169654, -1.3460877730564554e-25, -9.897839852325822e-15, 8.078873297290135e-14, -9.897839852171054e-15, 4.981794402107523e-27, 8.078873297358513e-14, 70.0, 5.2949645002719904e-43, 3.1421699764655108e-27, -6.368776059781718e-26, 1.076773108129231e-41, 1.615774659457995e-13, -9.4317245321966e-26, -4.288528303899537e-28, 2.423661989189288e-13, -7.195862756051499e-26, -2.2962960999292017e-28, 8.078873297290135e-14, -6.539646728725323e-14, 5.549862743520074e-14, 1.6157746594579444e-13, 5.549862743551521e-14, -6.53964672873316e-14, 4.198923536396005e-25, 5.549862743539932e-14, 6.539646728726902e-14, 1.6157746594616154e-13, -6.539646728729392e-14, -7.529430713979282e-14, 2.711435805083257e-25, 7.921796380610112e-13, -8.420793743836885e-28, -7.0859438948167975e-28, -5.1144873548751654e-26, 7.921796380610102e-13, -2.622009610028261e-28, -1.0389545323816666e-25, 1.9059936366929513e-28, -1.4550626692858563e-12, -6.995356224602161e-43, -1.8122606429330095e-29, -1.2959072886422984e-29, -1.8122606429329122e-29, -1.6650395599345916e-42, -1.2959072886426586e-29, 5.2949645002719904e-43, 70.0, -4.8900235643569965e-43, -5.751356392046444e-43, -2.7199032837161737e-58, -2.591814577284548e-29, -9.861337501032465e-43, 1.1797004855213667e-45, -3.887721865927356e-29, 1.1920515007178706e-43, 4.728919818256425e-46, -1.2959072886422984e-29, -4.1711122524902315e-30, -1.3951494176843673e-29, -2.591814577285144e-29, -1.3951494176843682e-29, -4.171112252489201e-30, -2.704619807234737e-42, -1.3951494176843643e-29, 4.1711122524874155e-30, -2.591814577284723e-29, -4.171112252487905e-30, -2.229371868181224e-29, -1.9360109807421067e-42, -4.653225250467087e-30, 1.2150364824869306e-44, 1.0284014822618965e-44, 4.168701326809353e-43, -4.6532252504682675e-30, 5.0378067627344767e-45, 3.511824269265945e-43, -1.5709193798784993e-43, 8.075721674261408e-30, 7.770559339285545e-27, -1.0499240655230414e-13, -7.523590470661054e-14, -1.0499240655230306e-13, -4.239041844186137e-27, -7.523590470663067e-14, 3.1421699764655108e-27, -4.8900235643569965e-43, 70.0, 4.500214913338407e-27, -8.348500745709245e-43, -1.504718094132182e-13, 6.025727913973078e-27, 1.480757064428253e-29, -2.257077141198228e-13, 4.675614878748806e-27, 6.87567902719863e-30, -7.523590470661054e-14, -2.4443850171728616e-14, -8.054855638057705e-14, -1.5047180941321535e-13, -8.05485563805792e-14, -2.444385017173318e-14, -1.5181704215501057e-26, -8.054855638058009e-14, 2.444385017172938e-14, -1.504718094132291e-13, -2.4443850171723876e-14, -1.2943625672403244e-13, -1.0835297680228952e-26, -2.2764712990667488e-14, 2.6305169104926254e-29, 1.9772767494337463e-29, 1.4249318089402768e-27, -2.276471299066609e-14, 2.4741974524611597e-30, 2.7380169466059595e-27, -4.043901896693914e-28, 4.162996989894302e-14, -2.951791520771732e-24, -3.018871324967475e-14, 1.1539103007165715e-13, -3.018871324604331e-14, -5.3404496348320334e-27, 1.1539103008718378e-13, -6.368776059781718e-26, -5.751356392046444e-43, 4.500214913338407e-27, 70.0, 2.2857023729082098e-40, 2.3078206014330956e-13, -2.8918341259452124e-24, 8.393995608340903e-28, 3.4617309022145147e-13, -1.0270325703390872e-24, 4.299391208532778e-28, 1.1539103007165715e-13, -3.3894558522988224e-13, 3.087568719812422e-13, 2.3078206014267216e-13, 3.087568719884938e-13, -3.389455852297606e-13, 9.4940062795633e-24, 3.08756871984944e-13, 3.389455852279285e-13, 2.307820601515891e-13, -3.389455852281141e-13, -3.691342984838563e-13, 6.0904154841567844e-24, -7.528467054341182e-12, 3.4489047834812945e-27, 6.499012250084081e-27, -1.0548954383465748e-24, -7.528467054341347e-12, 1.045394028479803e-27, -2.3638504545342873e-24, 1.8108916128250237e-27, 2.450503283201043e-12, 3.5292710286761832e-40, 2.093383916791653e-30, -2.1475473993740608e-29, 2.0933839163190316e-30, -2.329333285913545e-42, -2.1475473995784732e-29, 1.076773108129231e-41, -2.7199032837161737e-58, -8.348500745709245e-43, 2.2857023729082098e-40, 70.0, -4.295094798748033e-29, 3.4271925879717236e-40, -7.261496225969149e-44, -6.442642198215618e-29, 1.2488340583884418e-40, -3.926879396378239e-44, -2.1475473993740608e-29, 4.821949535869199e-29, -4.6126111442116714e-29, -4.29509479874885e-29, -4.612611144306554e-29, 4.821949535872322e-29, -1.250104418765805e-39, -4.612611144260505e-29, -4.821949535848841e-29, -4.295094798857332e-29, 4.8219495358490553e-29, 5.0312879276158833e-29, -8.019677110045456e-40, 7.821311996333939e-28, -1.067306761041345e-43, -5.9233206760259695e-43, 1.3853088768438222e-40, 7.821311996333934e-28, -4.625872642539822e-44, 3.1219599152455337e-40, -2.656639410332481e-43, -3.7073377244749694e-28, 3.9525145788592e-13, -5.581077714880942, -3.9877491524800286, -5.5810777148808635, -2.246265260226635e-13, -3.987749152481009, 1.615774659457995e-13, -2.591814577284548e-29, -1.504718094132182e-13, 2.3078206014330956e-13, -4.295094798748033e-29, 62.024501695040094, 3.0782462310500484e-13, 7.305143902422063e-16, -11.963247457439588, 2.390153529715303e-13, 3.351908168894473e-16, -3.9877491524800286, -1.3076624070690284, -4.27341530781196, -7.9754983049597525, -4.273415307812032, -1.3076624070692804, -7.515765533536177e-13, -4.273415307812096, 1.30766240706907, -7.975498304960438, -1.307662407068781, -6.88874012194998, -5.401607015271996e-13, -1.105587535428741, 1.28717783135578e-15, 9.57579856730532e-16, 6.899785266848041e-14, -1.1055875354286648, 9.699034741073315e-17, 1.3184038799817287e-13, -2.1466060581962384e-14, 2.020952734095256, -4.426556249835632e-24, -7.069743308043177e-14, 1.5391231155250567e-13, -7.069743307498313e-14, -9.11231515290326e-27, 1.5391231157579974e-13, -9.4317245321966e-26, -9.861337501032465e-43, 6.025727913973078e-27, -2.8918341259452124e-24, 3.4271925879717236e-40, 3.0782462310500484e-13, 70.0, 1.3009182366182755e-27, 4.617369346672423e-13, -1.5393945753551205e-24, 6.667009410941154e-28, 1.5391231155250567e-13, -5.146328138893179e-13, 4.439353808104248e-13, 3.0782462310404957e-13, 4.4393538082130394e-13, -5.146328138891357e-13, 1.424289403618844e-23, 4.4393538081597715e-13, 5.146328138863858e-13, 3.078246231174283e-13, -5.146328138866628e-13, -5.853302469762074e-13, 9.136486902575282e-24, -1.1292413313022643e-11, 5.196076636975803e-27, 9.729498766653228e-27, -1.5822059535552137e-24, -1.129241331302289e-11, 1.538352295750461e-27, -3.547064691181173e-24, 2.5825928963973427e-27, 3.683672492149542e-12, 8.116038570405339e-28, -8.33737899797942e-16, 3.652571951211125e-16, -8.337378997991194e-16, 4.1880198979961426e-29, 3.6525719511197447e-16, -4.288528303899537e-28, 1.1797004855213667e-45, 1.480757064428253e-29, 8.393995608340903e-28, -7.261496225969149e-44, 7.305143902422063e-16, 1.3009182366182755e-27, 70.0, 1.0957715853600164e-15, 1.4622156252931066e-29, -2.0073323481359833e-29, 3.652571951211125e-16, 1.0347030159461608e-16, -9.372082013793908e-16, 7.305143902421232e-16, -9.37208201381739e-16, 1.0347030159351397e-16, -5.680023316067927e-27, -9.372082013799455e-16, -1.0347030159286535e-16, 7.305143902354127e-16, 1.0347030159268305e-16, -7.302675981947818e-16, -3.572488259071686e-27, -5.9784606714869985e-15, -1.614316293707829e-29, 2.396279344726623e-29, 2.1902717557390856e-28, -5.978460671486931e-15, 3.035729966743548e-29, 1.9735082651486285e-27, 3.2646977297545385e-29, 2.4899412851036612e-15, 5.928771868388405e-13, -8.371616572320459, -5.981623728719906, -8.371616572320342, -3.3693978903403967e-13, -5.981623728721378, 2.423661989189288e-13, -3.887721865927356e-29, -2.257077141198228e-13, 3.4617309022145147e-13, -6.442642198215618e-29, -11.963247457439588, 4.617369346672423e-13, 1.0957715853600164e-15, 52.05512881384102, 3.585230294607714e-13, 5.027862253323172e-16, -5.981623728719906, -1.9614936106019287, -6.410122961718599, -11.96324745743936, -6.4101229617187085, -1.9614936106023066, -1.1273648300691023e-12, -6.410122961718804, 1.9614936106019918, -11.963247457440387, -1.9614936106015581, -10.333110182922404, -8.102410523155944e-13, -1.6583813031168733, 1.930766747038277e-15, 1.4363697850786237e-15, 1.0349677900698726e-13, -1.6583813031167614, 1.4548552111321176e-16, 1.97760582006949e-13, -3.2199090872945195e-14, 3.031429101127768, -1.608966634639987e-24, -5.075102763576524e-14, 1.1950767648576755e-13, -5.075102763379384e-14, 1.2309875846296254e-27, 1.1950767649421452e-13, -7.195862756051499e-26, 1.1920515007178706e-43, 4.675614878748806e-27, -1.0270325703390872e-24, 1.2488340583884418e-40, 2.390153529715303e-13, -1.5393945753551205e-24, 1.4622156252931066e-29, 3.585230294607714e-13, 70.0, -2.3608170133380982e-30, 1.1950767648576755e-13, -2.410354176063835e-13, 1.902843899714018e-13, 2.390153529712073e-13, 1.902843899753427e-13, -2.4103541760640173e-13, 5.166144327756805e-24, 1.902843899734508e-13, 2.410354176054218e-13, 2.39015352976033e-13, -2.41035417605538e-13, -2.917864452445168e-13, 3.315557669849714e-24, -2.9743385155023316e-12, 8.96884359995152e-28, 2.5335365365907927e-27, -5.783518092283161e-25, -2.9743385155024148e-12, 2.4542189542543526e-28, -1.2861915883168625e-24, 9.78152573099346e-28, -2.1958403154150388e-13, 4.047385963546331e-28, -4.892706191392341e-16, 1.675954084447281e-16, -4.892706191398661e-16, 2.0821553536245342e-29, 1.6759540843983078e-16, -2.2962960999292017e-28, 4.728919818256425e-46, 6.87567902719863e-30, 4.299391208532778e-28, -3.926879396378239e-44, 3.351908168894473e-16, 6.667009410941154e-28, -2.0073323481359833e-29, 5.027862253323172e-16, -2.3608170133380982e-30, 70.0, 1.675954084447281e-16, 5.5196581817853943e-17, -5.444672009501982e-16, 3.351908168893175e-16, -5.444672009514601e-16, 5.5196581817299226e-17, -3.0442680842605963e-27, -5.444672009504998e-16, -5.5196581816957896e-17, 3.351908168858119e-16, 5.51965818168392e-17, -4.3407403731678093e-16, -1.9151765975013084e-27, -3.406531379913586e-15, -7.935047352570797e-30, 1.2318386658395193e-29, 1.1545017431626784e-28, -3.4065313799135695e-15, 1.5692701988419085e-29, 1.0554141530272103e-27, 1.6795044846733314e-29, 1.8050079936156898e-16, 1.9762572894296414e-13, -2.7905388574405228, -1.993874576240052, -2.790538857440484, -1.1231326301133386e-13, -1.9938745762405425, 8.078873297290135e-14, -1.2959072886422984e-29, -7.523590470661054e-14, 1.1539103007165715e-13, -2.1475473993740608e-29, -3.9877491524800286, 1.5391231155250567e-13, 3.652571951211125e-16, -5.981623728719906, 1.1950767648576755e-13, 1.675954084447281e-16, 68.00612542375994, -0.653831203534526, -2.13670765390602, -3.987749152479952, -2.1367076539060563, -0.6538312035346521, -3.7578827667681715e-13, -2.136707653906088, 0.6538312035345473, -3.987749152480295, -0.6538312035344025, -3.4443700609750554, -2.7008035076360564e-13, -0.5527937677143805, 6.435889156779043e-16, 4.787899283652742e-16, 3.449892633424104e-14, -0.5527937677143433, 4.8495173705365725e-17, 6.592019399908794e-14, -1.07330302909814e-14, 1.0104763670476484, -5.920175902210278e-13, -1.213548008611359, -0.653831203534526, -1.2135480086104748, -3.588022215338739e-14, -0.653831203531263, -6.539646728725323e-14, -4.1711122524902315e-30, -2.4443850171728616e-14, -3.3894558522988224e-13, 4.821949535869199e-29, -1.3076624070690284, -5.146328138893179e-13, 1.0347030159461608e-16, -1.9614936106019287, -2.410354176063835e-13, 5.5196581817853943e-17, -0.653831203534526, 61.21284976476433, 7.573602226624973, -1.3076624070689944, 7.573602226626705, -8.787150235235947, 1.9683937027596417e-12, 7.573602226625934, 8.787150235235485, -1.307662407067436, -8.787150235235474, -10.000698243848738, 1.253952499805889e-12, -2.5881105194970706, 4.186158799659634e-16, 2.731586909989235e-15, -2.578030769099281e-13, -2.588110519497058, 2.829365784370148e-16, -4.566917772874266e-13, -3.2316193463310434e-15, 1.5268597284420165, 4.573770192924956e-13, -3.091388225593601, -2.13670765390602, -3.091388225593923, -1.199083718195936e-13, -2.1367076539078127, 5.549862743520074e-14, -1.3951494176843673e-29, -8.054855638057705e-14, 3.087568719812422e-13, -4.6126111442116714e-29, -4.27341530781196, 4.439353808104248e-13, -9.372082013793908e-16, -6.410122961718599, 1.902843899714018e-13, -5.444672009501982e-16, -2.13670765390602, 7.573602226624973, 59.33500954778163, -4.273415307811892, -10.66499045221916, 7.5736022266248115, -1.1798862648136438e-12, -10.664990452218815, -7.573602226624716, -4.273415307812783, 7.5736022266248435, 4.4822140010323865, -7.867571155811273e-13, 4.314863649949392, -2.168431634625336e-15, -4.300149137890252e-15, 1.4449695826793008e-13, 4.314863649949435, -1.0603686649523374e-15, 2.2015143860014365e-13, -1.2583352502636762e-14, -4.7060134254656925, 3.9525145788496074e-13, -5.58107771488084, -3.987749152479952, -5.581077714880763, -2.246265260227148e-13, -3.9877491524809328, 1.6157746594579444e-13, -2.591814577285144e-29, -1.5047180941321535e-13, 2.3078206014267216e-13, -4.29509479874885e-29, -7.9754983049597525, 3.0782462310404957e-13, 7.305143902421232e-16, -11.96324745743936, 2.390153529712073e-13, 3.351908168893175e-16, -3.987749152479952, -1.3076624070689944, -4.273415307811892, 62.02450169504039, -4.273415307811967, -1.3076624070692466, -7.515765533537278e-13, -4.27341530781203, 1.3076624070690364, -7.9754983049602854, -1.3076624070687473, -6.888740121949847, -5.401607015272663e-13, -1.1055875354290237, 1.2871778313659664e-15, 9.575798567339728e-16, 6.899785266848706e-14, -1.1055875354289486, 9.69903474100636e-17, 1.3184038799821566e-13, -2.1466060581962356e-14, 2.02095273409513, 4.573770193036837e-13, -3.091388225592636, -2.1367076539060563, -3.091388225592957, -1.1990837181959292e-13, -2.1367076539078487, 5.549862743551521e-14, -1.3951494176843682e-29, -8.05485563805792e-14, 3.087568719884938e-13, -4.612611144306554e-29, -4.273415307812032, 4.4393538082130394e-13, -9.37208201381739e-16, -6.4101229617187085, 1.902843899753427e-13, -5.444672009514601e-16, -2.1367076539060563, 7.573602226626705, -10.66499045221916, -4.273415307811967, 59.33500954778009, 7.573602226626543, -1.1798862648530566e-12, -10.66499045221958, -7.5736022266264476, -4.273415307812855, 7.573602226626575, 4.482214001035085, -7.867571156064014e-13, 4.314863649974365, -2.168431634629253e-15, -4.300149137909491e-15, 1.4449695827229337e-13, 4.314863649974406, -1.0603686649540384e-15, 2.2015143861000085e-13, -1.2583352502638439e-14, -4.706013425477815, -5.920175902209279e-13, -1.213548008611807, -0.6538312035346521, -1.2135480086109225, -3.588022215337748e-14, -0.6538312035313889, -6.53964672873316e-14, -4.171112252489201e-30, -2.444385017173318e-14, -3.389455852297606e-13, 4.821949535872322e-29, -1.3076624070692804, -5.146328138891357e-13, 1.0347030159351397e-16, -1.9614936106023066, -2.4103541760640173e-13, 5.5196581817299226e-17, -0.6538312035346521, -8.787150235235947, 7.5736022266248115, -1.3076624070692466, 7.573602226626543, 61.21284976476377, 1.9683937027608817e-12, 7.573602226625772, 8.787150235235774, -1.3076624070676885, -8.787150235235762, -10.00069824384947, 1.253952499806683e-12, -2.5881105194934246, 4.186158799600035e-16, 2.7315869099852282e-15, -2.5780307691007926e-13, -2.5881105194934166, 2.829365784359079e-16, -4.566917772877446e-13, -3.231619346333711e-15, 1.526859728440843, 1.4644325777648073e-23, 7.885074379539374e-13, -3.7578827667681715e-13, 7.885074379342598e-13, -1.999105303552321e-26, -3.7578827676222486e-13, 4.198923536396005e-25, -2.704619807234737e-42, -1.5181704215501057e-26, 9.4940062795633e-24, -1.250104418765805e-39, -7.515765533536177e-13, 1.424289403618844e-23, -5.680023316067927e-27, -1.1273648300691023e-12, 5.166144327756805e-24, -3.0442680842605963e-27, -3.7578827667681715e-13, 1.9683937027596417e-12, -1.1798862648136438e-12, -7.515765533537278e-13, -1.1798862648530566e-12, 1.9683937027608817e-12, 70.0, -1.179886264833968e-12, -1.9683937027511074e-12, -7.515765533995947e-13, 1.9683937027511873e-12, 2.756901140741881e-12, -3.348409568273541e-23, 2.96453058117906e-11, -6.2672962347802094e-27, -2.1071958023130155e-26, 5.6986478693817886e-24, 2.9645305811790626e-11, 2.6214576965913644e-27, 1.3143679243314728e-23, 6.046075125333306e-28, -1.8734080560227236e-11, 4.573770192982441e-13, -3.0913882255930605, -2.136707653906088, -3.091388225593383, -1.1990837181959342e-13, -2.1367076539078806, 5.549862743539932e-14, -1.3951494176843643e-29, -8.054855638058009e-14, 3.08756871984944e-13, -4.612611144260505e-29, -4.273415307812096, 4.4393538081597715e-13, -9.372082013799455e-16, -6.410122961718804, 1.902843899734508e-13, -5.444672009504998e-16, -2.136707653906088, 7.573602226625934, -10.664990452218815, -4.27341530781203, -10.66499045221958, 7.573602226625772, -1.179886264833968e-12, 59.33500954778077, -7.573602226625677, -4.27341530781292, 7.573602226625804, 4.4822140010338885, -7.867571155941614e-13, 4.314863649959325, -2.1684316346272783e-15, -4.300149137898069e-15, 1.4449695827017514e-13, 4.314863649959365, -1.060368664951597e-15, 2.2015143860523659e-13, -1.2583352502636156e-14, -4.706013425472695, 5.920175902181148e-13, 1.2135480086114425, 0.6538312035345473, 1.2135480086105588, 3.5880222153361886e-14, 0.6538312035312841, 6.539646728726902e-14, 4.1711122524874155e-30, 2.444385017172938e-14, 3.389455852279285e-13, -4.821949535848841e-29, 1.30766240706907, 5.146328138863858e-13, -1.0347030159286535e-16, 1.9614936106019918, 2.410354176054218e-13, -5.5196581816957896e-17, 0.6538312035345473, 8.787150235235485, -7.573602226624716, 1.3076624070690364, -7.5736022266264476, 8.787150235235774, -1.9683937027511074e-12, -7.573602226625677, 61.21284976476469, 1.3076624070674785, 8.7871502352353, 10.00069824384865, -1.2539524998004156e-12, 2.588110519487025, -4.186158799586862e-16, -2.731586909979946e-15, 2.578030769089831e-13, 2.5881105194870115, -2.8293657843497584e-16, 4.566917772853099e-13, 3.231619346332967e-15, -1.5268597284378989, 3.9525145789868717e-13, -5.581077714880171, -3.987749152480295, -5.581077714880094, -2.2462652602267401e-13, -3.987749152481275, 1.6157746594616154e-13, -2.591814577284723e-29, -1.504718094132291e-13, 2.307820601515891e-13, -4.295094798857332e-29, -7.975498304960438, 3.078246231174283e-13, 7.305143902354127e-16, -11.963247457440387, 2.39015352976033e-13, 3.351908168858119e-16, -3.987749152480295, -1.307662407067436, -4.273415307812783, -7.9754983049602854, -4.273415307812855, -1.3076624070676885, -7.515765533995947e-13, -4.27341530781292, 1.3076624070674785, 62.024501695039035, -1.307662407067189, -6.88874012194762, -5.401607015566732e-13, -1.1055875354050195, 1.2871778313493637e-15, 9.575798567149624e-16, 6.899785267343832e-14, -1.1055875354049438, 9.699034741648553e-17, 1.318403880098094e-13, -2.1466060581958008e-14, 2.0209527340765754, -5.920175902184143e-13, -1.213548008611302, -0.6538312035344025, -1.213548008610418, -3.588022215336588e-14, -0.6538312035311394, -6.539646728729392e-14, -4.171112252487905e-30, -2.4443850171723876e-14, -3.389455852281141e-13, 4.8219495358490553e-29, -1.307662407068781, -5.146328138866628e-13, 1.0347030159268305e-16, -1.9614936106015581, -2.41035417605538e-13, 5.51965818168392e-17, -0.6538312035344025, -8.787150235235474, 7.5736022266248435, -1.3076624070687473, 7.573602226626575, -8.787150235235762, 1.9683937027511873e-12, 7.573602226625804, 8.7871502352353, -1.307662407067189, 61.21284976476472, -10.000698243848495, 1.2539524998004707e-12, -2.5881105194875476, 4.1861587996036624e-16, 2.7315869099809802e-15, -2.578030769090004e-13, -2.5881105194875342, 2.8293657843533753e-16, -4.56691777285319e-13, -3.2316193463316697e-15, 1.5268597284358978, -7.266581611580495e-13, -5.518484242817874, -3.4443700609750554, -5.51848424281643, -1.9166881612626045e-13, -3.444370060970322, -7.529430713979282e-14, -2.229371868181224e-29, -1.2943625672403244e-13, -3.691342984838563e-13, 5.0312879276158833e-29, -6.88874012194998, -5.853302469762074e-13, -7.302675981947818e-16, -10.333110182922404, -2.917864452445168e-13, -4.3407403731678093e-16, -3.4443700609750554, -10.000698243848738, 4.4822140010323865, -6.888740121949847, 4.482214001035085, -10.00069824384947, 2.756901140741881e-12, 4.4822140010338885, 10.00069824384865, -6.88874012194762, -10.000698243848495, 54.480817513330976, 1.721147884053898e-12, -0.8613573890590749, -1.3311998747112371e-15, 1.1630246820939067e-15, -3.7110919555600443e-13, -0.8613573890590058, -4.944955080775924e-16, -6.932321159837421e-13, -1.904659119529867e-14, -1.652293968573257, 9.39536964965537e-24, 4.671953842298752e-13, -2.7008035076360564e-13, 4.671953842172574e-13, -1.4626855371807827e-26, -2.7008035081836783e-13, 2.711435805083257e-25, -1.9360109807421067e-42, -1.0835297680228952e-26, 6.0904154841567844e-24, -8.019677110045456e-40, -5.401607015271996e-13, 9.136486902575282e-24, -3.572488259071686e-27, -8.102410523155944e-13, 3.315557669849714e-24, -1.9151765975013084e-27, -2.7008035076360564e-13, 1.253952499805889e-12, -7.867571155811273e-13, -5.401607015272663e-13, -7.867571156064014e-13, 1.253952499806683e-12, -3.348409568273541e-23, -7.867571155941614e-13, -1.2539524998004156e-12, -5.401607015566732e-13, 1.2539524998004707e-12, 1.721147884053898e-12, 70.0, 1.9025951685676124e-11, -3.9837088211143926e-27, -1.3562992696832216e-26, 3.655680127051065e-24, 1.902595168567614e-11, 1.6014492922773783e-27, 8.425548169190913e-24, 1.4192112120170189e-28, -1.193062006829324e-11, -1.0526794802127482e-11, 1.7267531304479138, -0.5527937677143805, 1.726753130460415, -3.761425986878742e-14, -0.5527937676657719, 7.921796380610112e-13, -4.653225250467087e-30, -2.2764712990667488e-14, -7.528467054341182e-12, 7.821311996333939e-28, -1.105587535428741, -1.1292413313022643e-11, -5.9784606714869985e-15, -1.6583813031168733, -2.9743385155023316e-12, -3.406531379913586e-15, -0.5527937677143805, -2.5881105194970706, 4.314863649949392, -1.1055875354290237, 4.314863649974365, -2.5881105194934246, 2.96453058117906e-11, 4.314863649959325, 2.588110519487025, -1.1055875354050195, -2.5881105194875476, -0.8613573890590749, 1.9025951685676124e-11, 194.96624108160185, 4.228104326488312e-14, -9.82969084602012e-14, -3.3576464872143435e-12, 124.9662410816018, -5.0405404849099274e-14, -6.893986803341583e-12, -5.3270453854389565e-14, 64.6259193998166, 4.3396667185282256e-27, -1.7498157546706177e-15, 6.435889156779043e-16, -1.7498157546726506e-15, 1.1854650047114973e-28, 6.435889156676871e-16, -8.420793743836885e-28, 1.2150364824869306e-44, 2.6305169104926254e-29, 3.4489047834812945e-27, -1.067306761041345e-43, 1.28717783135578e-15, 5.196076636975803e-27, -1.614316293707829e-29, 1.930766747038277e-15, 8.96884359995152e-28, -7.935047352570797e-30, 6.435889156779043e-16, 4.186158799659634e-16, -2.168431634625336e-15, 1.2871778313659664e-15, -2.168431634629253e-15, 4.186158799600035e-16, -6.2672962347802094e-27, -2.1684316346272783e-15, -4.186158799586862e-16, 1.2871778313493637e-15, 4.1861587996036624e-16, -1.3311998747112371e-15, -3.9837088211143926e-27, 4.228104326488312e-14, 70.0, -1.2268893585328854e-29, 4.921665356091893e-28, 4.2281043264885626e-14, -1.5019150376858344e-29, 1.8302279382477087e-27, -9.591783192270722e-30, 1.316133724253176e-13, 9.075912133140502e-27, -1.5685622278940427e-15, 4.787899283652742e-16, -1.5685622279037418e-15, 7.029207136514443e-29, 4.787899283306213e-16, -7.0859438948167975e-28, 1.0284014822618965e-44, 1.9772767494337463e-29, 6.499012250084081e-27, -5.9233206760259695e-43, 9.57579856730532e-16, 9.729498766653228e-27, 2.396279344726623e-29, 1.4363697850786237e-15, 2.5335365365907927e-27, 1.2318386658395193e-29, 4.787899283652742e-16, 2.731586909989235e-15, -4.300149137890252e-15, 9.575798567339728e-16, -4.300149137909491e-15, 2.7315869099852282e-15, -2.1071958023130155e-26, -4.300149137898069e-15, -2.731586909979946e-15, 9.575798567149624e-16, 2.7315869099809802e-15, 1.1630246820939067e-15, -1.3562992696832216e-26, -9.82969084602012e-14, -1.2268893585328854e-29, 70.0, 2.746265596456512e-27, -9.829690846020036e-14, 2.529848223401813e-29, 4.523180686246973e-27, 2.2850689543620244e-29, -1.2214782443115325e-14, -1.6322182265038156e-24, -1.1330611864302616e-13, 3.449892633424104e-14, -1.1330611864084829e-13, 3.6555404976348435e-27, 3.449892634356427e-14, -5.1144873548751654e-26, 4.168701326809353e-43, 1.4249318089402768e-27, -1.0548954383465748e-24, 1.3853088768438222e-40, 6.899785266848041e-14, -1.5822059535552137e-24, 2.1902717557390856e-28, 1.0349677900698726e-13, -5.783518092283161e-25, 1.1545017431626784e-28, 3.449892633424104e-14, -2.578030769099281e-13, 1.4449695826793008e-13, 6.899785266848706e-14, 1.4449695827229337e-13, -2.5780307691007926e-13, 5.6986478693817886e-24, 1.4449695827017514e-13, 2.578030769089831e-13, 6.899785267343832e-14, -2.578030769090004e-13, -3.7110919555600443e-13, 3.655680127051065e-24, -3.3576464872143435e-12, 4.921665356091893e-28, 2.746265596456512e-27, 70.0, -3.3576464872143468e-12, 4.199212139090755e-28, -