10
Lattice="8.621930572096973 -1.9650134631350328e-14 -1.0025736696749161e-15 -9.984903871119085e-14 8.621930572097053 -5.900700994166242e-16 8.030898832503685e-16 4.0088875399590867e-16 6.374847742552397" Properties=species:S:1:pos:R:3:forces:R:3 energy=-7.227550142766535 stress="-2.5980913900504967e-09 -4.421995851803291e-16 -3.2058174655405514e-18 -4.421995851803291e-16 -2.598090699750588e-09 9.339554859152502e-19 -3.2058174655405514e-18 9.339554859152502e-19 4.654787826230072e-09" free_energy=-7.23434898 dipole="3.6739993269918614e-09 9.439792503229683e-09 -1.310983177560161e-07" pbc="T T T"
Cs       0.00000000       4.31096529       3.18742387       0.00000000      -0.00000000       0.00000000
Cs       4.31096529       0.00000000       3.18742387       0.00000000       0.00000000       0.00000000
Pb       4.31096529       4.31096529      -0.00000000      -0.00000000      -0.00000000      -0.00000000
Pb       0.00000000       0.00000000      -0.00000000       0.00000000       0.00000000      -0.00000000
I        4.31096529       4.31096529       3.18742387       0.00000000       0.00000000       0.00000001
I        0.00000000       0.00000000       3.18742387       0.00000000       0.00000000       0.00000001
I        2.74523783       7.05620311      -0.00000000      -0.00000039      -0.00000039      -0.00000000
I        5.87669275       1.56572746      -0.00000000       0.00000039       0.00000039      -0.00000000
I        1.56572746       2.74523783      -0.00000000       0.00000039      -0.00000039      -0.00000000
I        7.05620311       5.87669275      -0.00000000      -0.00000039       0.00000039      -0.00000000
