5
Lattice="6.2579610316639105 -2.3384424968243506e-17 -2.5341130790288995e-17 -1.8208043335634634e-17 6.2579610316639105 6.92635779071768e-16 -8.471031992313984e-18 9.095182883916961e-17 6.25796103166391" Properties=species:S:1:pos:R:3:forces:R:3 energy=-3.531376838634063 stress="2.8256062896330316e-08 -5.830327141684425e-20 1.9842226068278546e-18 -5.830327141684425e-20 2.825606289836888e-08 4.191224155781172e-18 1.9842226068278546e-18 4.191224155781172e-18 2.825606283653246e-08" free_energy=-3.53400948 dipole="1.6881997355574192e-07 1.6881997073821309e-07 1.688199708917753e-07" pbc="T T T"
Cs      -0.00000000      -0.00000000      -0.00000000      -0.00000000      -0.00000000      -0.00000000
Pb       3.12898051       3.12898051       3.12898051       0.00000001       0.00000001       0.00000001
I        3.12898051       3.12898051      -0.00000000       0.00000000       0.00000000      -0.00000002
I        3.12898051      -0.00000000       3.12898051       0.00000000      -0.00000002       0.00000000
I       -0.00000000       3.12898051       3.12898051      -0.00000002       0.00000000       0.00000000
