 -1.2835027e-01   1.3925133e-12
 -2.9204850e-06   2.5804274e-11
  2.2667645e-04   5.1080995e-10
  5.3418298e-05   8.9639351e-11
 -1.7893458e-02   8.7241236e-09
  2.3416520e-04   4.5030493e-11
  4.1262897e-06   4.9440403e-11
 -6.7376284e-05   1.4489227e-12
  1.7189242e-04   8.9344305e-12
 -2.2357982e-01   5.7029300e-13
 -1.1558824e-06   2.9422818e-06
  1.9256841e-07   2.3501740e-07
 -5.9821232e-05   6.4571018e-12
  8.6801793e-07   9.2194286e-10
  6.6459819e-07   3.3445733e-08
  2.4854886e-05   3.4045307e-08
  4.3616842e-06   3.2670822e-08
 -1.0376700e-04   5.1492599e-10
  1.4628045e-05   1.5164373e-09
 -9.4040604e-07   1.7245555e-14
  1.2309352e-05   2.4078624e-08
 -8.4132844e-06   1.2599400e-11
 -5.1859620e-06   1.4085502e-10
  4.4554508e-05   1.0627615e-10
 -3.7710450e-04   3.0770320e-11
 -1.3650620e-05   3.1489106e-11
  1.1480990e-05   4.8991819e-06
  3.0731335e-06   8.0788665e-09
  6.5289346e-06   2.1458858e-10
 -2.4049197e-05   7.4260903e-08
  2.4916872e-06   2.7814193e-07
 -1.1121027e-05   5.4885544e-11
  1.1793891e-06   1.5215505e-08
 -1.5673244e-06   2.1065465e-07
  6.3725770e-06   3.2579877e-09
 -1.2926461e-05   1.1410648e-08
  4.0685515e-07   1.8400562e-11
 -4.8128746e-05   2.8960710e-12
 -5.8964661e-06   7.6180520e-08
 -1.0319299e-05   1.1254518e-06
 -1.5628151e-06   7.4704843e-12
 -9.7667962e-06   2.7276811e-10
 -9.7474676e-06   7.1081928e-08
 -3.0982210e-06   2.8380496e-11
 -2.2427776e-06   7.7918338e-07
 -6.1040009e-05   1.1987416e-07
 -3.9056613e-06   4.1330683e-08
  6.3961043e-06   6.1864465e-09
  1.2387322e-04   1.6188080e-11
 -1.1656121e-05   8.5532584e-08
 -2.5362036e-05   4.0207908e-09
 -6.5860985e-07   4.5936888e-10
 -4.8796537e-05   1.4696742e-08
 -1.5100987e-05   1.6489340e-06
  8.5233933e-06   8.6113732e-15
  4.4762982e-07   6.3688418e-07
  1.4111791e-05   2.7465567e-12
 -2.6516589e-06   3.1990513e-08
 -1.7603849e-06   5.0423883e-09
 -2.1807144e-05   1.0385797e-06
  2.8920942e-04   1.9172220e-12
 -3.3135882e-06   1.5514972e-08
 -1.4495353e-05   8.0180498e-12
  5.1025669e-05   6.2815410e-13
 -1.3967651e-05   1.3349295e-07
  1.0889885e-05   9.6680935e-08
 -6.4381376e-05   1.1544953e-08
  1.0469348e-05   1.3692087e-09
  2.0102321e-05   2.1948701e-09
  8.5157499e-06   2.0251569e-09
  1.7085771e-05   8.9928028e-07
  1.8027547e-05   1.3019823e-10
  7.4709342e-06   7.7929954e-08
 -1.5222323e-05   7.6234724e-10
  1.3675600e-05   1.2277499e-08
 -1.1107742e-05   1.9621539e-06
  1.3513940e-05   3.4383345e-07
  1.9161773e-05   1.4884380e-08
 -2.1626124e-06   1.3250177e-08
 -3.7106577e-06   9.9984110e-09
  2.5201754e-05   6.3398625e-06
  1.1055051e-05   9.7414228e-09
  5.8357973e-06   1.5165764e-06
 -8.8147845e-06   8.2967949e-07
 -1.1490032e-06   3.2397959e-11
 -5.2821366e-07   4.1525565e-09
 -6.7845253e-06   6.6896875e-09
 -1.2671632e-05   3.9002977e-08
  1.2970320e-06   1.1451685e-09
  9.9212994e-06   3.4389257e-06
  1.7066977e+00   3.3564678e-09
 -6.1128458e-07   4.6678994e-10
 -1.1088849e+00   4.1134971e-09
 -7.2727851e-03   1.4267680e-12
 -1.4896572e-01   1.2497864e-10
 -1.1525388e-05   9.1071505e-11
 -1.5868703e-05   9.1863578e-10
  6.0228858e-02   7.8492525e-12
 -4.1563025e-01   9.1636648e-10
 -5.0392187e-01   6.1271954e-10
 -5.1562843e-06   1.9676188e-10
 -1.0330574e-05   2.0297151e-09
  2.4637959e-03   8.2828577e-11
 -1.1026571e-01   3.0133951e-11
 -6.1341401e-02   1.7377405e-10
 -1.4726744e-06   6.3297460e-07
 -6.1089831e-06   9.3528094e-08
  2.2442515e-01   1.6434978e-15
  1.4771330e-01   5.7605010e-12
 -3.0849096e-01   1.7129155e-12
  4.6792185e-05   1.7669145e-15
  2.1280102e-06   7.1850397e-09
  1.3240345e-01   1.7758223e-15
  1.8652537e-01   1.4165848e-13
  3.3820707e-01   4.3816784e-10
 -2.0184125e-05   2.0922711e-10
 -8.1673725e-06   1.0392708e-09
 -2.8412362e-05   4.5052243e-08
  6.4929213e-06   2.8789527e-08
 -7.2840980e-05   1.2294201e-07
 -1.5160691e-05   1.1507116e-13
  5.8265596e-06   5.2484977e-14
  2.0141232e-04   3.7341121e-09
  1.6114214e-05   2.2436184e-09
  1.9467179e-05   1.8106789e-09
  1.3778730e-04   3.3124590e-11
 -2.2383136e-05   1.9688797e-07
 -4.5995083e-07   3.5015341e-10
 -1.7285758e-05   1.1723721e-08
  2.9187507e-04   2.1269203e-13
  1.3663932e-05   6.2702874e-09
  1.0184927e-05   5.0470737e-07
 -1.0321353e-06   5.4698628e-08
  1.5544054e-05   1.5661374e-09
 -1.3276968e-05   1.8823767e-08
  2.4869461e-05   2.9979262e-08
  1.2164171e-05   1.6921381e-11
 -4.3786099e-06   1.3924273e-09
 -6.0501319e-05   4.6042614e-14
 -3.4231536e-05   3.4193781e-10
  4.0167721e-05   8.2827682e-11
 -1.3899669e-06   1.0092713e-10
 -4.1136907e-05   1.2064946e-09
 -3.8471506e-05   2.4045281e-07
  9.0338574e-07   3.9843251e-10
 -2.6640054e-04   1.5608623e-10
  2.4588437e-05   7.2416908e-09
  3.0305704e-05   5.3196812e-11
 -3.6922123e-04   1.5646033e-10
  2.9861372e-05   5.1138285e-09
  2.8349523e-05   5.1520688e-06
 -7.3090098e-07   2.7590485e-10
 -4.7067747e-06   3.0530245e-08
  7.7297445e-06   5.7118243e-09
 -1.1061867e-06   1.0414384e-06
  7.3355011e-05   7.2861123e-10
  5.2266989e-07   7.7911295e-08
  2.7877161e-06   1.3582248e-08
 -1.3695906e-05   1.1488770e-06
  4.4326049e-07   5.2833639e-06
  3.5741577e-05   2.0993590e-10
 -1.9570116e-06   1.4697294e-09
 -1.6207190e-05   4.8962073e-10
  1.3918790e-05   1.9342616e-07
  7.2074617e-06   9.8209981e-08
  7.3566225e-05   1.3895224e-09
  9.9353092e-05   2.7989441e-13
 -2.2556813e-04   2.3018980e-15
 -6.6059889e-05   6.8624364e-09
  2.7185715e-07   1.8001243e-08
 -5.5107389e-06   1.7623634e-09
 -7.5898652e-06   8.5618488e-08
  6.7881460e-06   2.3424732e-06
 -1.5756745e-05   3.6932302e-09
  1.1571403e-06   2.5942771e-07
 -7.9407881e-05   6.0796697e-09
  6.8026538e-06   1.1727804e-08
 -6.0435614e-06   9.1111744e-08
 -1.5603888e-06   1.5119218e-09
 -2.4109057e-05   7.0454712e-06
 -1.9953511e+00   6.0961891e-12
  2.2080811e-05   2.8421888e-13
  1.2106347e-01   2.3019671e-11
 -4.7277361e-01   1.9924862e-09
  1.3622718e+00   6.0635261e-11
  2.1061469e-05   4.6915252e-07
 -1.2081253e-05   1.2504673e-06
  1.5961885e-05   1.9034668e-12
  9.2641689e-02   7.7949753e-09
  2.2291495e-02   2.3276354e-09
 -1.0760787e-05   3.4675601e-10
  1.6016209e-06   2.0252351e-09
 -2.0383713e-05   3.8586665e-11
  5.5315835e-05   1.1358236e-10
 -6.4293265e-05   1.7353701e-08
 -1.0835066e-05   8.6021366e-08
  1.4152622e-04   1.0487345e-10
  5.7804944e-05   2.0112891e-12
  1.7044449e-06   6.8595035e-10
  1.9057143e-01   1.3989702e-09
  1.2645576e-06   2.5535355e-06
  8.0818387e-07   2.1768702e-09
  1.0128945e-06   5.9877941e-10
 -2.4386360e-05   7.4533970e-09
 -5.0723462e-05   4.4445798e-11
 -5.6359113e-06   6.8436208e-07
 -7.1632239e-05   3.1156017e-06
 -5.7022125e-06   6.1165667e-10
 -7.8571265e-06   1.0779186e-09
 -2.7077091e-05   8.2366704e-08
 -1.3971118e+00   2.9675453e-09
  3.3503601e-01   7.1953793e-10
  1.5260640e+00   3.5176532e-11
 -1.1403457e+00   2.4560182e-13
  8.7065923e-01   1.0303123e-12
  8.5820742e-05   4.9376142e-11
 -8.0367863e-05   2.5324417e-12
 -2.1305088e-05   3.4276941e-09
  3.8559341e-01   8.8087617e-09
 -7.0443249e-01   2.4763049e-11
 -2.6146030e-05   6.6652984e-07
  8.7082890e-06   5.2814794e-11
 -3.1110679e-04   5.0818825e-09
 -1.9100808e-06   1.4501048e-15
 -1.4908876e-07   1.4025155e-10
 -5.9254780e-06   2.2415453e-07
 -1.2545981e-06   8.4060945e-09
 -1.1585886e-01   5.0337073e-13
 -1.6086424e-02   4.3298671e-09
  8.5125677e-02   8.6826537e-09
 -1.1584239e-05   3.3973624e-09
  5.6488960e-07   1.4037237e-08
  1.7689321e-06   2.8555313e-12
 -1.1262749e-01   5.2535309e-10
 -1.5687811e-01   2.0234303e-09
 -5.5661212e-06   5.0580914e-11
  9.1058555e-06   7.2572352e-13
  2.9912455e-06   4.2693699e-08
 -7.4028314e-05   1.3878646e-15
  1.3996585e-05   6.5062437e-08
  1.3493727e-01   9.5701216e-12
  1.9497625e-04   6.3107844e-12
  1.1903053e-06   3.8521814e-13
 -2.1504578e-01   2.0022987e-13
 -5.3623620e-02   2.5967272e-11
  1.4253239e-07   2.9012310e-16
  4.0453538e-06   6.1074253e-12
  3.1002766e-01   5.8006752e-11
 -6.9058655e-07   1.0980498e-10
  8.0102324e-01   2.8216923e-10
 -1.1559794e-05   6.3232022e-08
  1.6235192e-06   9.8567409e-07
  1.5723404e-04   2.8010301e-09
 -7.3275520e-03   1.6692829e-11
  3.6211295e-05   8.6144105e-09
 -6.1283513e-06   3.4267953e-13
 -1.5466905e-05   8.7792547e-09
  7.4168622e-02   5.7713969e-11
  5.7064593e-03   1.3918945e-10
  4.2716601e-06   2.3775057e-11
 -6.9553330e-06   1.7452615e-08
  1.2782997e-05   1.7817146e-09
  7.3051313e-03   1.5381985e-10
  7.8134336e-02   7.3889506e-10
  1.8797512e-01   1.2297600e-13
  2.1608481e-05   1.3830513e-10
 -3.3913582e-06   1.2791416e-08
  4.0408930e-05   6.3016575e-10
 -1.9315355e-06   1.3006785e-08
  1.3938211e-04   7.0839499e-09
  1.3414053e-04   5.3255837e-11
 -1.7966153e-05   8.1631740e-10
 -2.2215646e-02   1.6179272e-10
 -1.2169893e-01   1.8300412e-11
  5.9544345e-06   5.4484608e-11
  4.5415888e-08   5.1307044e-08
 -6.3570417e-07   6.4002370e-07
  7.5473152e-05   8.1684909e-11
 -5.3819626e-06   9.9002395e-10
 -1.4937647e-02   1.3887139e-12
  5.0346384e-06   3.5419060e-07
 -6.7718265e-06   2.4718732e-09
  2.2937229e-05   5.6441398e-09
 -2.3643543e-05   5.5555818e-09
  1.4387672e-05   3.0134604e-09
  2.7967710e-06   1.0640041e-10
  2.1869693e-05   6.5676718e-13
  1.5210820e-04   9.3626813e-09
  1.3480395e-06   8.8129729e-12
  1.2767520e-05   1.0857337e-08
  2.6481641e-06   3.7688901e-07
  4.5685638e-07   1.9742385e-11
  2.4791421e-05   7.4195128e-08
  4.8087886e-06   1.1728107e-08
  2.0550249e-02   6.3106070e-12
 -2.0489454e-06   3.1419922e-06
  3.3319054e-06   7.8489575e-07
  5.9331467e-07   4.0790055e-10
  8.4758831e-06   6.5454422e-08
  4.9304094e-06   1.1023591e-06
 -5.0164169e-01   4.4967552e-10
  8.5041838e-06   4.1022808e-08
  2.1625669e-07   5.6569934e-06
 -2.1173506e-05   5.8764567e-09
  3.0002081e-01   1.8519653e-07
 -9.8016778e-07   1.1455637e-07
 -2.4080449e-05   9.3955271e-07
 -1.4618875e-06   2.0417820e-10
  7.2335075e-05   2.1565199e-11
  2.0561238e-06   3.9907497e-10
 -1.2101059e-06   5.0635949e-09
  5.0195058e-06   4.7656795e-10
 -1.1656089e-05   2.0633299e-11
  2.9078046e-05   2.6207201e-09
  1.2358204e-05   2.7483932e-06
 -4.9310115e-06   7.0445156e-12
 -1.2549506e-05   1.8975155e-06
 -1.6252111e-06   3.3232837e-08
 -8.4361182e-06   3.1619145e-08
 -2.4335043e-06   6.4668264e-08
  9.5861369e-06   4.8227175e-08
 -4.2447186e-06   2.0272062e-11
  2.7862366e-06   1.0401365e-09
 -1.8790208e-05   5.7876695e-09
  2.3232717e-06   1.6801116e-07
 -3.7771748e-05   3.5264594e-07
  1.9575223e-06   1.2729657e-07
  1.1091227e-05   9.7070815e-12
 -2.2365333e-05   1.7983998e-15
  1.2146365e-05   1.5567037e-09
 -3.0314555e-05   2.6568125e-06
 -3.1461113e-05   3.3196743e-09
 -9.7329723e-07   2.8874653e-11
 -2.6529606e-05   1.8445500e-06
  6.0301895e-06   4.4530175e-08
 -1.5887766e-05   4.4165930e-07
  5.6755687e-07   5.1149141e-07
 -5.0206072e-05   6.1830949e-09
 -2.0238012e-06   8.4860410e-08
 -1.7703028e-06   9.3669321e-09
  3.0214667e-05   6.9821300e-07
  5.2967125e-06   8.9132391e-07
 -1.2381713e-05   5.3660234e-08
  2.4697417e-06   1.3283184e-06
 -6.5554300e-06   3.8402337e-08
 -4.1112967e-06   2.2705049e-07
  3.6980566e-06   2.0175477e-09
 -1.1075057e-05   1.6763478e-10
  3.1975594e-07   8.8662610e-08
  7.3683173e-06   9.2630984e-08
  7.3201390e-06   7.1014380e-13
 -6.1008323e-06   8.4907718e-15
  1.0864352e-05   8.6829675e-07
 -2.8734082e-06   6.0016106e-08
  1.6826667e-05   1.0855743e-10
 -4.3414511e-06   1.4381854e-07
 -1.1038970e-06   9.0220993e-08
  3.6373905e-05   3.9528708e-10
 -2.3020257e-05   2.2197105e-06
  2.5660031e-06   7.6094908e-09
 -1.1240710e-03   3.8611121e-11
 -1.8270046e-05   2.2169791e-10
  5.0274577e-02   1.1517809e-09
  3.6444256e-01   1.1780450e-09
  6.6892553e-06   4.6374969e-14
 -1.4044575e-05   1.6764855e-07
 -2.5866427e-07   3.4108901e-08
 -1.0127930e-03   3.7212755e-12
  4.1818470e-02   4.3952459e-12
 -6.1626146e-03   1.2005626e-10
 -5.9699801e-06   1.6361666e-07
 -1.5860122e-06   7.7901561e-09
 -1.4164839e-04   6.6829577e-09
  5.7563429e-06   4.4648929e-14
  3.8891041e-05   4.7214069e-11
  3.5284768e-06   5.4054348e-09
 -1.6570199e-06   2.5901281e-11
 -3.9194342e-02   3.8247117e-11
 -1.3465981e-03   4.4621980e-11
 -1.5969415e-06   4.8352851e-09
 -2.6735284e-05   3.2045691e-09
  4.6745070e-05   2.4478877e-11
 -3.8913699e-05   1.7846133e-08
 -4.1488113e-04   4.4956689e-08
 -1.2197723e-02   1.0764996e-08
  2.1065066e-06   1.6209905e-08
 -1.6735328e-06   1.5587839e-09
  6.7334913e-06   3.1484228e-07
  2.1207257e-05   9.9073304e-07
  3.2097290e-05   2.8850867e-08
  2.8365197e-05   8.0408791e-11
 -4.1212005e-04   5.5915970e-11
 -1.7139173e-05   3.6530505e-12
  7.0926608e-06   8.3615390e-07
 -7.6670685e-06   6.5801743e-08
  2.2515238e-05   3.1697749e-07
 -4.6860219e-05   5.8535649e-10
  1.3981833e-06   1.1367223e-09
 -9.7384473e-06   9.7172581e-10
  1.4062764e-05   3.2362859e-09
  3.8928297e-06   4.1878760e-08
 -3.3269935e-06   1.3044068e-09
 -2.5641029e-05   5.6588540e-12
 -4.4720514e-06   1.6803556e-09
  2.2310429e-05   8.6734900e-14
  8.7807330e-06   8.3870063e-08
 -7.5765462e-07   1.0458329e-08
 -2.4399915e-05   1.6134173e-08
  5.1835436e-06   1.3821256e-08
  4.3543441e-06   6.1583364e-07
 -6.5920949e-07   3.7507011e-09
  8.2115039e-06   8.0673334e-07
  1.9329043e-06   9.7235215e-07
  3.1518096e-06   1.8133832e-10
 -5.5267756e-05   4.2497394e-10
  6.5658719e-06   4.0970129e-08
 -2.0815260e-05   1.6267475e-07
  5.3660742e-06   1.2722602e-08
  6.3809478e-07   5.7050778e-07
  9.2459659e-06   1.7285839e-08
  6.0666293e-01   9.5946930e-09
  1.1946133e+00   1.8482625e-10
 -7.6801240e-02   2.8631574e-12
 -2.7446959e+00   1.7841557e-09
 -2.4421398e-01   4.9283311e-10
  4.6532659e-06   3.4014291e-10
  1.5262782e-06   5.0955191e-07
  4.9627226e-02   1.2347878e-10
 -5.5247128e-01   3.6569959e-11
 -5.8069717e-02   2.1516419e-12
  1.5251563e-05   7.6558031e-09
  9.5877285e-06   6.3764701e-06
  2.3473665e-01   4.7003768e-15
 -9.4577201e-02   4.3387078e-12
  3.0860734e-01   2.7534693e-11
 -3.8404096e-06   1.1389973e-08
  8.5445499e-06   1.8246981e-08
  3.6347172e-01   1.6962759e-13
  1.2110220e-01   9.6983166e-10
 -1.3090667e-01   5.6408522e-10
  8.3945801e-05   8.4092949e-10
 -1.6722437e-05   8.4114546e-08
  2.7171576e-01   2.2430648e-10
  5.3096908e-01   6.7181333e-10
  6.3478488e-01   7.3072964e-10
 -1.5054207e-05   2.0639444e-10
  3.2773364e-06   1.7947628e-09
 -1.3140584e-05   4.5783436e-11
  2.0932453e-05   7.3994868e-09
 -1.7876594e-01   2.2050806e-10
  1.2067308e-06   6.1762392e-12
  5.1991679e-05   3.9772771e-10
 -3.5506886e-01   6.9998781e-13
 -1.8468356e+00   9.7020605e-09
  1.7555466e-02   1.2349364e-12
 -6.0620612e-05   4.7267481e-12
 -4.0441346e-06   8.6690228e-09
  6.8631463e-02   4.7004860e-14
 -2.9531950e-01   2.8431133e-09
  1.4379586e-02   4.8950725e-11
  2.6335632e-05   4.0351257e-08
  8.4922112e-06   6.8927131e-09
  4.9446936e-04   2.4803203e-11
 -7.7780476e-03   7.8470411e-11
 -1.2329975e-05   4.5642944e-11
 -4.1259900e-06   1.3506906e-08
 -1.4329792e-05   1.2961962e-13
  2.0972635e-01   9.1231580e-13
  1.4347899e-01   2.1108735e-11
  3.1467982e-05   3.4506191e-15
 -5.1629188e-05   2.0955175e-14
 -3.4763298e-06   4.8649795e-08
  6.2451478e-02   4.6069190e-11
  2.2511248e-01   3.5104264e-08
  2.9769975e-01   1.2729744e-10
 -8.7808130e-06   6.3229293e-09
  5.0972485e-06   1.3384096e-06
 -1.3911806e-06   2.0260576e-11
  1.2336225e-05   2.7615460e-11
  1.2480913e-05   2.7316810e-11
 -1.4336830e+00   2.5123950e-11
  5.3432799e-05   7.3560089e-11
 -1.0550040e-07   2.7158017e-11
  1.3778747e-05   1.5633062e-10
  1.0419570e-02   6.7692840e-13
 -9.9174049e-06   4.4513908e-07
 -1.4834171e-05   1.3894083e-06
 -1.0542039e-05   7.7243902e-14
  1.0260801e-04   1.5439279e-09
  8.0402700e-05   6.1355669e-12
 -2.8914053e-06   9.8302576e-07
  4.8147398e-05   1.9476516e-08
 -8.0132559e-06   1.1109305e-10
 -2.1565168e-06   1.0741068e-10
 -1.2339066e-05   5.0991666e-10
 -1.1592825e-05   2.3758409e-06
 -1.8457200e-05   4.3270906e-16
 -1.8707339e-06   3.4552122e-11
 -1.0643983e-05   1.2089887e-10
 -1.9375875e-05   2.8847108e-10
  2.5117226e-05   1.8257793e-11
  3.4042348e-06   2.2802279e-11
  8.0474210e-06   9.0227276e-10
 -8.9044506e-06   6.8775215e-08
 -1.1048936e-05   8.6495461e-10
  5.1635698e-06   1.2909530e-09
 -2.3719456e-05   3.3530505e-08
  1.7095970e-04   8.2801401e-14
  3.5799014e-06   6.5156995e-09
 -1.5826161e-05   2.8707426e-08
 -7.6532388e-06   2.0663664e-07
 -3.9125216e-06   7.4688034e-11
  1.5653755e-05   6.5316627e-08
  7.0020656e-06   1.6077735e-10
  9.2281107e-06   9.7384583e-12
  1.2617135e-05   5.5333332e-10
  4.3780774e-06   1.8640978e-09
 -5.1218916e-07   5.7193881e-07
 -3.8647551e-05   7.0000431e-07
 -1.0914973e-05   2.7484820e-08
  1.4438656e-05   9.9924102e-07
 -5.4611341e-04   1.4375101e-10
 -2.2982808e-06   1.1704936e-08
 -5.1486491e-06   1.2007008e-10
 -3.2621596e-04   4.2749926e-14
 -1.2173673e-06   1.4406208e-08
 -1.9010417e-06   5.4959848e-08
 -3.4546272e-06   2.9315801e-09
  6.6174912e-06   4.2120087e-07
 -1.8157125e-05   4.0474792e-08
  3.9211177e-06   2.7903884e-06
 -2.3065966e-06   3.4222783e-08
  2.7320930e-05   2.3799905e-06
  5.9753187e-05   7.3497290e-08
  5.7694892e-06   1.7028830e-08
 -8.2705381e-05   1.7995362e-11
  2.0182663e-06   1.7480235e-09
  1.6645739e-05   4.9304756e-08
  3.1857885e-04   1.2012532e-09
 -1.6983186e-05   8.6168486e-09
  2.0051940e-01   2.4820348e-12
 -1.1720721e+00   1.2503190e-11
 -3.4463644e-01   4.3045036e-11
  1.9702896e+00   3.8491246e-10
 -2.3922987e+00   4.6764459e-12
 -1.3711577e-05   1.7543725e-06
 -6.6417292e-06   6.2941149e-07
  1.3433170e-05   9.2717105e-11
 -2.4397078e-01   1.4804643e-12
  5.7466549e-01   6.9449044e-11
  2.4267651e-05   1.3363538e-07
 -1.1117859e-05   9.1463165e-10
  1.6624560e-03   9.4938046e-10
 -5.9536728e-04   1.5288243e-12
  5.8090964e-06   1.4114142e-09
 -8.3255312e-05   1.5905876e-12
  6.5584213e-06   1.3278728e-07
  1.7843518e-01   2.8085284e-10
  6.1936982e-02   4.5050086e-10
 -3.3987972e-03   3.0192394e-11
 -4.0005511e-05   1.2981708e-06
 -3.6917629e-06   1.4069757e-14
  8.7664187e-02   5.0260029e-10
  1.2663120e-01   1.7183465e-11
  2.9802704e-01   4.6940420e-09
  9.4153045e-05   2.2341809e-11
  4.7346864e-05   2.8688734e-09
 -4.7315971e-06   4.8596194e-09
 -7.9866495e-06   7.6703185e-07
 -4.5228255e-05   7.5220674e-09
 -2.6658459e+00   6.3692318e-09
 -7.4457407e-06   4.3831033e-13
  1.2666161e+00   4.5318266e-10
  1.2999399e+00   1.5450992e-08
  1.7299352e+00   1.4685995e-12
 -1.2635402e-05   5.5540374e-07
  1.3307913e-05   1.7182663e-14
  1.4087649e-01   7.7962375e-10
  1.1267421e-01   7.4424703e-11
  5.3887612e-01   1.8775560e-10
  1.5265266e-05   2.3936160e-08
  3.9244833e-06   4.0473104e-08
 -2.3575649e-03   7.5878160e-14
 -9.3946859e-05   3.4237784e-12
 -1.1305369e-01   4.3812651e-11
  9.4663854e-05   2.3392803e-07
 -4.1263735e-05   7.2377767e-20
  1.6937248e-06   2.8762150e-09
 -3.4372999e-05   1.9070905e-10
  2.6665130e-01   4.0700698e-12
  1.4431782e-04   1.3950994e-11
 -1.1439623e-05   7.0864625e-09
 -9.2651555e-04   4.4724762e-09
 -6.7982666e-02   4.4212772e-08
 -8.6048365e-02   1.3426727e-14
 -2.4345632e-06   1.2953150e-08
  1.8712386e-05   2.4944011e-08
 -1.0571099e-05   2.2272056e-08
 -1.1990321e-07   5.0804760e-09
  5.7660651e-07   5.1490993e-15
 -1.1318364e-05   2.8422512e-06
  2.4768934e-07   2.5740957e-13
 -3.1397999e-06   1.1708903e-11
 -9.0339063e-06   2.5969294e-07
 -1.2515015e-05   7.6843918e-09
  2.2653363e-05   1.8212172e-06
 -1.9630441e-05   9.5713779e-07
  7.2702605e-06   1.9647440e-07
 -1.9436938e-07   7.5297299e-07
  1.6165644e-05   5.1028994e-12
  8.0308355e-06   8.9013417e-07
 -3.3624399e-06   2.8985315e-07
  9.0423182e-06   6.5042320e-12
  1.7950724e-06   3.5869158e-10
 -1.0683248e-05   2.1898018e-10
  6.0110614e-07   2.0116526e-07
 -8.0169193e-06   2.7778819e-07
 -6.2351774e-06   1.1580298e-11
  1.1835990e-05   6.9594757e-09
 -3.0669460e-05   5.6041016e-10
 -1.2043913e-05   3.2382799e-10
  4.2990305e-06   3.6453386e-08
  1.5401738e-05   2.7428459e-06
  1.6463929e-04   3.9880213e-12
 -5.4526305e-07   8.6307823e-09
 -1.1474656e-05   1.8007872e-13
 -3.5542694e-06   5.0386162e-09
  5.1627226e-06   1.0636435e-15
  5.2540092e-04   5.2636254e-13
  1.0651229e-06   3.1163723e-09
 -5.1428960e-06   1.5458605e-07
 -8.4847970e-06   6.3464412e-08
 -1.3797530e-05   1.4511405e-06
 -9.7972918e-07   1.9455773e-07
  6.7059642e-05   9.8897190e-10
 -4.2289819e-05   1.0479140e-11
 -4.4348099e-07   7.0630501e-09
 -2.6137693e-06   7.6156583e-14
 -9.1247457e-06   1.4361313e-09
 -9.3332901e-06   1.3140059e-12
 -6.8553643e-05   1.0765380e-06
 -8.2451852e-06   4.5597444e-06
  1.6147491e-04   3.2214476e-10
  1.3327030e-05   4.8722131e-06
  1.8593972e-05   1.5187943e-09
  1.3095736e-05   2.7760319e-07
  3.4232997e-07   3.9207823e-08
  1.1644889e-04   4.1554778e-13
  5.2066702e-07   1.1528917e-10
 -8.4813892e-06   2.5068625e-06
 -3.7274622e-06   1.7899114e-09
 -1.0053989e-05   1.0070907e-08
  3.7289572e-06   1.0828281e-10
  2.4037053e-08   4.6086041e-11
 -1.4016390e-05   8.3972350e-07
 -3.5958021e-06   4.4713147e-06
  9.3896178e-06   3.5913688e-06
  3.2555110e-06   1.4851121e-08
 -1.1022639e-05   2.3244564e-08
 -1.3560371e-05   3.8388277e-12
 -9.2191840e-06   8.6598231e-09
 -1.0835765e-06   3.9550972e-08
 -1.7076844e-07   1.3377885e-10
  2.9527624e-05   2.3052259e-12
 -6.5900635e-06   1.9549821e-08
 -5.4704460e-06   1.1915866e-13
 -2.3700350e-06   5.0300941e-10
 -5.0871640e-06   1.8170966e-06
 -5.3527143e-05   3.7035782e-08
  1.7482868e-06   9.3060830e-11
 -2.2270442e-05   1.2029594e-08
  2.3140211e-04   1.1088667e-08
 -1.2252959e-05   1.0752177e-07
 -1.7182934e-05   4.5139754e-09
  2.8229209e-05   8.8438824e-08
 -3.4652976e-06   2.1166958e-10
  1.1317657e-05   2.1699209e-09
 -1.1763541e-05   1.9474491e-07
 -6.6397038e-06   6.5260451e-08
 -6.9662769e-06   8.1699127e-09
 -6.4730693e-06   1.3675732e-06
 -9.1958333e-05   1.9525698e-12
  7.0688920e-06   6.9991422e-08
  1.0668326e-05   1.6650096e-06
 -1.6337392e-05   3.1108701e-08
  2.3427604e-06   8.1241930e-11
 -2.4688268e-05   4.8976290e-07
  5.9698341e-06   1.2997867e-07
 -7.0007090e-06   5.8694400e-09
 -3.6734496e-06   2.2126887e-08
  1.9042917e-04   1.0810716e-11
  3.1575830e-05   5.5679860e-11
  3.8877341e-01   3.5320764e-13
  2.3139146e-01   8.9195412e-10
 -1.2554690e-01   1.2184531e-12
  1.3908018e-05   8.9403684e-12
 -3.8384530e-07   1.1220525e-11
 -1.8549779e-01   3.2332159e-10
  3.9803613e-02   3.2046355e-11
 -1.7494319e-02   1.9082499e-10
 -4.5899783e-06   3.7133943e-10
 -5.3733102e-06   1.0228978e-06
 -6.6162218e-05   7.7174184e-11
  6.0389186e-05   2.2018443e-10
  7.0879348e-03   8.9780372e-10
 -9.1474149e-06   5.8925237e-10
  4.4245837e-05   2.6017907e-10
 -3.4686345e-01   5.6953258e-11
 -7.7686913e-02   9.4054937e-12
  4.6949139e-05   2.8547949e-11
  7.3112817e-05   6.4521757e-09
  1.9098473e-04   1.8428596e-14
 -1.2335198e-02   5.8994765e-09
 -8.5680492e-02   4.9641281e-11
 -1.6309108e-01   3.4105159e-09
 -5.3861040e-06   3.4632421e-07
  4.6180689e-05   1.5005850e-07
 -1.8024735e-06   4.9364213e-14
  3.8672966e-05   6.6782448e-08
  1.9142985e-04   5.5428776e-11
  1.2488819e-04   7.9285753e-13
 -3.1950669e-05   1.6298244e-06
 -9.9771596e-06   2.2542315e-07
  8.1605785e-06   1.5775035e-09
 -2.9776681e-06   3.8766896e-11
 -6.1533206e-07   2.6006497e-08
 -6.8807654e-05   4.1280755e-12
 -3.2291391e-05   1.4860978e-09
  1.3310350e-04   4.4494857e-09
 -1.0300714e-05   1.6771998e-10
 -4.2032138e-06   8.6346944e-08
  1.3109373e-05   1.4641829e-10
  3.6959624e-05   4.1839220e-11
 -2.4043475e-06   3.5122554e-09
  4.2026431e-06   6.5298724e-07
 -3.7520884e-05   1.3592094e-08
 -2.2435280e-04   2.5247836e-14
  7.9401079e-06   1.8051380e-11
  4.9836776e-06   4.8649085e-09
  8.7198336e-05   2.7994089e-09
 -1.0406693e-04   7.1875492e-11
 -3.5632886e-06   3.1891196e-07
 -6.9054877e-06   1.3673104e-11
  2.4543267e-06   8.3791178e-08
  1.0798252e-04   1.1162301e-08
  1.8102752e-05   1.0720446e-07
 -1.2441651e-06   5.0603663e-08
  3.0077954e-06   4.9093263e-09
 -4.1082008e-06   1.2225550e-10
  1.3845854e-05   8.7240829e-07
 -2.4867482e-05   3.1111452e-10
  2.9883038e-06   3.4324377e-13
 -2.1452267e-06   7.0267174e-07
  3.4408265e-07   5.3377165e-13
  1.2775960e-06   1.1842737e-10
 -2.1364057e-04   8.0170764e-07
  2.8161829e-05   1.8084388e-10
  2.4955443e-07   4.9073083e-08
  2.6349486e-05   1.0946019e-09
  2.3590524e-06   2.9427832e-14
  9.4761708e-06   3.1063311e-07
  3.1841381e-08   1.2682806e-09
  1.5556399e-05   3.6360563e-09
  4.6963469e-05   7.3785039e-08
 -2.9308361e-01   1.0826691e-07
  3.4565592e-06   2.4162802e-10
  5.7943198e-06   1.3602120e-06
  1.1481901e-05   1.7696893e-11
 -8.4010644e-06   1.0816984e-09
 -1.5754778e-05   6.0304586e-07
  1.1792878e-05   6.7948589e-09
  1.5986059e-04   6.5516026e-08
 -2.2431973e-06   2.0204380e-13
 -1.0154283e-05   5.6974347e-10
 -1.2168211e-05   6.7676806e-09
 -6.8944892e-06   1.0268969e-08
 -1.9935162e-06   9.8572418e-12
 -2.9360442e-06   7.5489631e-10
 -2.4611280e-05   8.6204221e-12
 -4.1034600e-06   1.4408306e-09
  2.9180326e-05   1.4266550e-10
  7.0515066e-06   1.3080194e-13
 -7.3395786e-04   8.4337710e-11
 -2.3852039e-05   8.7671803e-10
 -1.2934599e-05   1.0264539e-10
 -2.6040892e-05   5.1140068e-14
  3.1637806e-05   3.8018815e-08
 -1.3680093e-06   5.6705609e-08
 -2.0133932e-05   2.7724032e-15
  2.4928364e-03   2.4884681e-08
 -2.9043983e-06   6.7800179e-09
 -7.0046790e-06   8.4235809e-09
 -1.9104693e-06   2.5645548e-09
 -5.6398781e-06   1.1426726e-10
  3.7649513e-06   1.6246563e-08
  1.8647606e-06   2.6748767e-08
 -8.2821098e-06   3.4592459e-10
  6.1590225e-05   4.7956457e-09
  1.3214062e-04   2.5643720e-10
  1.2069663e-06   3.7839808e-13
  4.1028666e-06   3.4726568e-08
  1.5479787e-05   6.6179701e-11
  4.1688595e-06   5.7163048e-09
 -2.7970687e-05   9.0111435e-08
 -8.1469079e-07   2.5734454e-12
  3.1267369e-05   9.1010588e-07
 -1.0608511e-05   8.6230237e-08
 -1.2424252e-05   9.4612794e-08
 -3.1444833e-05   5.2895797e-07
  5.0008443e-06   2.1831974e-09
  1.5441328e-06   7.8538335e-07
  8.8274546e-06   5.4935106e-10
 -8.2679162e-06   1.2262435e-08
  2.2806378e-05   1.2840709e-07
 -6.7318583e-06   1.8081751e-08
  1.3459579e-06   5.3480699e-07
  1.4237768e-05   1.3209872e-07
 -1.3157455e-05   1.5554955e-08
  1.2789914e-06   7.2283915e-11
 -6.5389276e-07   1.4805610e-11
 -1.7088420e-05   1.1031746e-06
  1.6472197e-05   1.0914188e-08
  4.3036061e-06   4.9921955e-10
 -3.5701480e-06   1.6668598e-09
 -9.6001904e-06   1.7457677e-07
  4.2202093e-05   1.0396228e-07
  1.4898775e-06   1.6127804e-06
  6.9864886e-06   9.4201042e-08
 -2.3890429e-06   5.1908788e-08
 -1.4149240e-04   1.3243620e-08
 -1.4659604e-05   2.3042192e-10
  2.3457393e-05   6.4316902e-07
  5.5904569e-05   7.5645072e-09
 -9.9973558e-06   4.1023884e-07
 -5.1310403e-06   3.4208711e-06
 -4.0312566e-06   1.9593402e-09
 -8.6619775e-06   2.7159333e-09
 -2.4761805e-06   1.2389884e-09
 -3.3635993e-06   5.0178306e-10
  6.4280607e-06   2.2975399e-09
 -2.2253274e-05   2.3579337e-06
  6.0984289e-06   7.9284090e-09
 -2.8657139e-06   5.9756978e-08
  5.6153581e-06   3.7436845e-07
 -1.1478036e-05   5.9175498e-08
  2.2318511e-05   5.8747219e-07
 -1.2036597e-05   3.3576157e-06
 -1.3179079e-05   2.9106758e-07
  1.6420086e-05   2.9155164e-08
  1.9170437e-05   3.2700033e-08
  1.8927745e-05   3.8428989e-06
 -6.1646235e-05   7.0876681e-08
 -3.3478370e-06   1.9299788e-08
  1.0449557e-05   1.8667738e-07
 -4.8767775e-05   3.5305403e-10
 -1.9305882e-01   1.3379870e-12
  3.4955028e-05   5.1336076e-07
  6.1775769e-05   2.6735591e-12
  1.3981880e-05   4.1718953e-09
 -1.0396971e-06   4.0366316e-10
 -6.8625235e-07   1.9759442e-08
  6.8870331e-06   1.1953660e-08
 -8.0076279e-06   2.6179343e-06
 -8.0106878e-07   1.7718387e-06
 -1.1183181e-05   4.3353361e-06
 -9.5107416e-06   7.4752565e-11
 -5.4970174e-06   1.3578705e-10
  6.0186223e-05   6.6058954e-07
  3.9605093e-06   3.0210965e-09
 -1.2330621e-05   4.5063007e-09
 -3.0677239e-08   7.3333797e-09
  2.5709223e-06   2.7932647e-06
  4.9949717e-06   1.1204848e-09
 -4.4513061e-05   2.8938104e-13
 -1.3474937e-05   1.5792445e-08
  2.7807857e-05   1.0197128e-08
  9.9421122e-06   2.1938955e-07
  1.0115426e-05   4.9314069e-10
 -7.2972040e-07   6.5773342e-10
  5.9020877e-06   2.6600732e-13
  4.2464799e-06   1.0848542e-10
  3.1405256e-05   3.6816650e-07
 -2.0523114e-05   3.2255130e-08
 -1.9250949e-05   8.0642513e-07
  4.3255088e-05   3.3234728e-06
  2.7530962e-06   1.4532550e-09
  5.4924230e-06   1.0702896e-06
  5.8083569e-05   1.0103936e-13
 -1.8741332e-05   2.7478706e-07
  2.6100928e-05   4.8963333e-10
  2.0667905e-05   8.5750164e-11
  2.0380961e-05   3.3028722e-14
 -1.8225117e-05   7.0402190e-10
  1.0501069e-05   2.3582795e-06
 -1.5697490e-06   4.9447273e-08
 -4.4800136e-06   2.7847490e-08
  4.8862248e-06   4.1430649e-08
  3.3473630e-02   6.4779571e-12
 -3.1400141e-06   7.1044582e-07
  1.2336993e-04   1.9676706e-12
  4.0749592e-01   1.1877401e-09
  2.0127413e-06   7.9785303e-11
  1.9688116e-05   1.4125097e-09
 -1.5655760e-01   5.1855829e-11
 -5.3225326e-06   9.5031491e-12
 -2.1856483e-06   5.6700498e-09
 -6.4534396e-02   3.7413950e-11
 -5.3879464e-01   3.2984337e-11
 -8.2917857e-01   1.7560915e-10
  1.2151886e+00   2.2453212e-14
  3.1053227e-05   1.1588516e-11
  4.6505160e-05   7.8644126e-11
 -1.7635541e-01   9.8849091e-14
  7.4843701e-06   7.8699195e-08
 -2.1368010e-01   1.8569587e-13
  3.9238375e-01   1.7131581e-11
 -1.0162536e-01   4.7220824e-11
 -1.5312195e-04   1.1633228e-12
  1.3496602e+00   1.5620480e-09
  1.1136787e-01   3.9907552e-12
 -3.0845667e-06   6.1930616e-10
 -3.8314251e-05   1.3973184e-07
 -4.7268003e-01   1.8460140e-08
 -5.3828901e-01   8.1391710e-10
 -1.8175460e-05   2.6363594e-08
 -2.2415908e-05   2.5705607e-08
  3.7636739e-01   3.8930659e-10
 -8.9128853e-06   3.5108866e-07
  4.6277677e-05   7.0459388e-11
 -7.7722005e-05   8.8997720e-16
 -7.8397512e-01   4.3263122e-11
 -6.1119477e-05   4.3908040e-07
 -1.9852951e-05   6.2860160e-08
  1.5242797e+00   1.4446764e-08
 -2.5604275e-01   3.5149476e-08
  1.2098553e-05   5.1507533e-07
 -1.1848915e+00   1.5092311e-08