nqpoint: 550    
npath: 11     
segment_nqpoint:
- 50
- 50
- 50
- 50
- 50
- 50
- 50
- 50
- 50
- 50
- 50
labels:
- [ 'G', 'X' ]
- [ 'X', 'Y' ]
- [ 'Y', 'S' ]
- [ 'S', 'G' ]
- [ 'G', 'Z' ]
- [ 'Z', 'S1' ]
- [ 'S1', 'N' ]
- [ 'N', 'P' ]
- [ 'P', 'Y1' ]
- [ 'Y1', 'Z|X' ]
- [ 'Z|X', 'P' ]
reciprocal_lattice:
- [  -0.00000000,   0.14462451,   0.09835680 ] # a*
- [   0.14462451,   0.00000000,   0.09835680 ] # b*
- [   0.14462451,   0.14462451,   0.00000000 ] # c*
natom: 10     
lattice:
- [    -3.457228632923000,     3.457228632923000,     5.083532698940000 ] # a
- [     3.457228632923000,    -3.457228632923000,     5.083532698940000 ] # b
- [     3.457228632923000,     3.457228632923000,    -5.083532698940000 ] # c
points:
- symbol: Ba # 1
  coordinates: [  0.750000000000000,  0.250000000000000,  0.500000000000000 ]
  mass: 137.327000
- symbol: Ba # 2
  coordinates: [  0.250000000000000,  0.750000000000000,  0.500000000000000 ]
  mass: 137.327000
- symbol: Zr # 3
  coordinates: [  0.000000000000000,  0.000000000000000,  0.000000000000000 ]
  mass: 91.224000
- symbol: Zr # 4
  coordinates: [  0.500000000000000,  0.500000000000000,  0.000000000000000 ]
  mass: 91.224000
- symbol: S  # 5
  coordinates: [  0.750000000000000,  0.750000000000000,  0.000000000000000 ]
  mass: 32.060000
- symbol: S  # 6
  coordinates: [  0.250000000000000,  0.250000000000000,  0.000000000000000 ]
  mass: 32.060000
- symbol: S  # 7
  coordinates: [  0.808969371061999,  0.691030628938001,  0.500000000000000 ]
  mass: 32.060000
- symbol: S  # 8
  coordinates: [  0.191030628938001,  0.308969371061999,  0.500000000000000 ]
  mass: 32.060000
- symbol: S  # 9
  coordinates: [  0.308969371061999,  0.808969371061999,  0.117938742123999 ]
  mass: 32.060000
- symbol: S  # 10
  coordinates: [  0.691030628938001,  0.191030628938001,  0.882061257876001 ]
  mass: 32.060000

phonon:
- q-position: [    0.0000000,    0.0000000,    0.0000000 ]
  distance:    0.0000000
  band:
  - # 1
    frequency:   -0.0171136121
  - # 2
    frequency:   -0.0171136121
  - # 3
    frequency:   -0.0015903431
  - # 4
    frequency:    1.2199981455
  - # 5
    frequency:    1.2199981455
  - # 6
    frequency:    1.2755078150
  - # 7
    frequency:    2.0609217104
  - # 8
    frequency:    2.0609217104
  - # 9
    frequency:    2.4995423764
  - # 10
    frequency:    2.4995423764
  - # 11
    frequency:    2.5611201376
  - # 12
    frequency:    3.0437880339
  - # 13
    frequency:    3.0437880339
  - # 14
    frequency:    3.8055202195
  - # 15
    frequency:    3.8055202195
  - # 16
    frequency:    4.1074814194
  - # 17
    frequency:    4.2440216728
  - # 18
    frequency:    4.6476581147
  - # 19
    frequency:    5.8778553671
  - # 20
    frequency:    6.1468725417
  - # 21
    frequency:    6.1468725417
  - # 22
    frequency:    6.2150438832
  - # 23
    frequency:    6.9073506936
  - # 24
    frequency:    6.9073506936
  - # 25
    frequency:    8.4394920072
  - # 26
    frequency:    9.0664781869
  - # 27
    frequency:    9.1012845224
  - # 28
    frequency:    9.1012845224
  - # 29
    frequency:    9.4593249707
  - # 30
    frequency:   12.8084089083

- q-position: [    0.0000000,    0.0000000,    0.0102041 ]
  distance:    0.0020870
  band:
  - # 1
    frequency:    0.0842298614
  - # 2
    frequency:    0.0895201778
  - # 3
    frequency:    0.1229707398
  - # 4
    frequency:    1.2191028792
  - # 5
    frequency:    1.2215852973
  - # 6
    frequency:    1.2772077652
  - # 7
    frequency:    2.0610298908
  - # 8
    frequency:    2.0630254833
  - # 9
    frequency:    2.4993734124
  - # 10
    frequency:    2.5000708398
  - # 11
    frequency:    2.5587860002
  - # 12
    frequency:    3.0444991014
  - # 13
    frequency:    3.0510279983
  - # 14
    frequency:    3.8062677071
  - # 15
    frequency:    3.8070313175
  - # 16
    frequency:    4.1084182252
  - # 17
    frequency:    4.2457136035
  - # 18
    frequency:    4.6481826420
  - # 19
    frequency:    5.8771763411
  - # 20
    frequency:    6.1371831584
  - # 21
    frequency:    6.1473310555
  - # 22
    frequency:    6.2248955411
  - # 23
    frequency:    6.9031205412
  - # 24
    frequency:    6.9086233590
  - # 25
    frequency:    8.4401390355
  - # 26
    frequency:    9.0665750837
  - # 27
    frequency:    9.1009560320
  - # 28
    frequency:    9.1045950436
  - # 29
    frequency:    9.4599145682
  - # 30
    frequency:   12.8098647269

- q-position: [    0.0000000,    0.0000000,    0.0204082 ]
  distance:    0.0041741
  band:
  - # 1
    frequency:    0.1707399685
  - # 2
    frequency:    0.1786620287
  - # 3
    frequency:    0.2469022169
  - # 4
    frequency:    1.2167447409
  - # 5
    frequency:    1.2263190911
  - # 6
    frequency:    1.2819498145
  - # 7
    frequency:    2.0613554965
  - # 8
    frequency:    2.0693176843
  - # 9
    frequency:    2.4988801555
  - # 10
    frequency:    2.5016683811
  - # 11
    frequency:    2.5521321613
  - # 12
    frequency:    3.0466181714
  - # 13
    frequency:    3.0722659572
  - # 14
    frequency:    3.8085035408
  - # 15
    frequency:    3.8115703721
  - # 16
    frequency:    4.1112064510
  - # 17
    frequency:    4.2508070981
  - # 18
    frequency:    4.6497648155
  - # 19
    frequency:    5.8751551336
  - # 20
    frequency:    6.1164611800
  - # 21
    frequency:    6.1487037501
  - # 22
    frequency:    6.2460941166
  - # 23
    frequency:    6.8904682674
  - # 24
    frequency:    6.9124157276
  - # 25
    frequency:    8.4420683192
  - # 26
    frequency:    9.0668629645
  - # 27
    frequency:    9.0999985865
  - # 28
    frequency:    9.1145135707
  - # 29
    frequency:    9.4616539941
  - # 30
    frequency:   12.8141940407

- q-position: [    0.0000000,    0.0000000,    0.0306122 ]
  distance:    0.0062611
  band:
  - # 1
    frequency:    0.2560579773
  - # 2
    frequency:    0.2669968063
  - # 3
    frequency:    0.3688042037
  - # 4
    frequency:    1.2135989523
  - # 5
    frequency:    1.2341175045
  - # 6
    frequency:    1.2889711341
  - # 7
    frequency:    2.0619017144
  - # 8
    frequency:    2.0797357864
  - # 9
    frequency:    2.4981029413
  - # 10
    frequency:    2.5043712694
  - # 11
    frequency:    2.5420453817
  - # 12
    frequency:    3.0501033388
  - # 13
    frequency:    3.1062264042
  - # 14
    frequency:    3.8122076345
  - # 15
    frequency:    3.8191556663
  - # 16
    frequency:    4.1157798168
  - # 17
    frequency:    4.2593570799
  - # 18
    frequency:    4.6524303106
  - # 19
    frequency:    5.8718384144
  - # 20
    frequency:    6.0923549658
  - # 21
    frequency:    6.1509821135
  - # 22
    frequency:    6.2709607522
  - # 23
    frequency:    6.8695073941
  - # 24
    frequency:    6.9186522850
  - # 25
    frequency:    8.4452447906
  - # 26
    frequency:    9.0673334350
  - # 27
    frequency:    9.0984926829
  - # 28
    frequency:    9.1310006640
  - # 29
    frequency:    9.4644585089
  - # 30
    frequency:   12.8212838098

- q-position: [    0.0000000,    0.0000000,    0.0408163 ]
  distance:    0.0083482
  band:
  - # 1
    frequency:    0.3403201549
  - # 2
    frequency:    0.3541178022
  - # 3
    frequency:    0.4881660012
  - # 4
    frequency:    1.2102543086
  - # 5
    frequency:    1.2448469565
  - # 6
    frequency:    1.2975462545
  - # 7
    frequency:    2.0626738275
  - # 8
    frequency:    2.0941560967
  - # 9
    frequency:    2.4971071261
  - # 10
    frequency:    2.5082393285
  - # 11
    frequency:    2.5296302132
  - # 12
    frequency:    3.0548863734
  - # 13
    frequency:    3.1511951289
  - # 14
    frequency:    3.8173458588
  - # 15
    frequency:    3.8298207150
  - # 16
    frequency:    4.1220288790
  - # 17
    frequency:    4.2714611379
  - # 18
    frequency:    4.6562215369
  - # 19
    frequency:    5.8673010083
  - # 20
    frequency:    6.0672136682
  - # 21
    frequency:    6.1541520507
  - # 22
    frequency:    6.2970960652
  - # 23
    frequency:    6.8404237674
  - # 24
    frequency:    6.9272115515
  - # 25
    frequency:    8.4496111190
  - # 26
    frequency:    9.0679726174
  - # 27
    frequency:    9.0965614704
  - # 28
    frequency:    9.1539895171
  - # 29
    frequency:    9.4681972022
  - # 30
    frequency:   12.8309501491

- q-position: [    0.0000000,    0.0000000,    0.0510204 ]
  distance:    0.0104352
  band:
  - # 1
    frequency:    0.4233150174
  - # 2
    frequency:    0.4396027623
  - # 3
    frequency:    0.6042512280
  - # 4
    frequency:    1.2070846925
  - # 5
    frequency:    1.2583267136
  - # 6
    frequency:    1.3071294319
  - # 7
    frequency:    2.0636791441
  - # 8
    frequency:    2.1123563086
  - # 9
    frequency:    2.4959803750
  - # 10
    frequency:    2.5133549711
  - # 11
    frequency:    2.5159842897
  - # 12
    frequency:    3.0608750405
  - # 13
    frequency:    3.2053040305
  - # 14
    frequency:    3.8238690910
  - # 15
    frequency:    3.8436177471
  - # 16
    frequency:    4.1298027142
  - # 17
    frequency:    4.2872685275
  - # 18
    frequency:    4.6611968883
  - # 19
    frequency:    5.8616420424
  - # 20
    frequency:    6.0417921967
  - # 21
    frequency:    6.1581940204
  - # 22
    frequency:    6.3236760680
  - # 23
    frequency:    6.8034707569
  - # 24
    frequency:    6.9379320625
  - # 25
    frequency:    8.4550893776
  - # 26
    frequency:    9.0687613206
  - # 27
    frequency:    9.0943570428
  - # 28
    frequency:    9.1833844534
  - # 29
    frequency:    9.4727057854
  - # 30
    frequency:   12.8429447398

- q-position: [    0.0000000,    0.0000000,    0.0612245 ]
  distance:    0.0125222
  band:
  - # 1
    frequency:    0.5047795278
  - # 2
    frequency:    0.5230086212
  - # 3
    frequency:    0.7163113592
  - # 4
    frequency:    1.2042946368
  - # 5
    frequency:    1.2743345632
  - # 6
    frequency:    1.3173284131
  - # 7
    frequency:    2.0649268455
  - # 8
    frequency:    2.1339449358
  - # 9
    frequency:    2.4948290498
  - # 10
    frequency:    2.5021661811
  - # 11
    frequency:    2.5198217846
  - # 12
    frequency:    3.0679561609
  - # 13
    frequency:    3.2666570232
  - # 14
    frequency:    3.8317119419
  - # 15
    frequency:    3.8606201332
  - # 16
    frequency:    4.1389115760
  - # 17
    frequency:    4.3069922789
  - # 18
    frequency:    4.6674293468
  - # 19
    frequency:    5.8549805890
  - # 20
    frequency:    6.0163892244
  - # 21
    frequency:    6.1630832231
  - # 22
    frequency:    6.3503153677
  - # 23
    frequency:    6.7589629994
  - # 24
    frequency:    6.9506197106
  - # 25
    frequency:    8.4615833599
  - # 26
    frequency:    9.0696752788
  - # 27
    frequency:    9.0920456744
  - # 28
    frequency:    9.2190590244
  - # 29
    frequency:    9.4778002769
  - # 30
    frequency:   12.8569631384

- q-position: [    0.0000000,    0.0000000,    0.0714286 ]
  distance:    0.0146093
  band:
  - # 1
    frequency:    0.5844419485
  - # 2
    frequency:    0.6038607331
  - # 3
    frequency:    0.8236346734
  - # 4
    frequency:    1.2019855955
  - # 5
    frequency:    1.2926133797
  - # 6
    frequency:    1.3278631260
  - # 7
    frequency:    2.0664276998
  - # 8
    frequency:    2.1582354768
  - # 9
    frequency:    2.4893207874
  - # 10
    frequency:    2.4937738796
  - # 11
    frequency:    2.5277626117
  - # 12
    frequency:    3.0759992343
  - # 13
    frequency:    3.3333511336
  - # 14
    frequency:    3.8407912067
  - # 15
    frequency:    3.8809205505
  - # 16
    frequency:    4.1491308077
  - # 17
    frequency:    4.3309229972
  - # 18
    frequency:    4.6750041211
  - # 19
    frequency:    5.8474515810
  - # 20
    frequency:    5.9911395824
  - # 21
    frequency:    6.1687898387
  - # 22
    frequency:    6.3767762716
  - # 23
    frequency:    6.7072691242
  - # 24
    frequency:    6.9650557042
  - # 25
    frequency:    8.4689815285
  - # 26
    frequency:    9.0706854594
  - # 27
    frequency:    9.0897943653
  - # 28
    frequency:    9.2608539027
  - # 29
    frequency:    9.4832893411
  - # 30
    frequency:   12.8726544268

- q-position: [    0.0000000,    0.0000000,    0.0816327 ]
  distance:    0.0166963
  band:
  - # 1
    frequency:    0.6620339182
  - # 2
    frequency:    0.6816367319
  - # 3
    frequency:    0.9255810683
  - # 4
    frequency:    1.2002040393
  - # 5
    frequency:    1.3128782389
  - # 6
    frequency:    1.3385487729
  - # 7
    frequency:    2.0681935829
  - # 8
    frequency:    2.1840363078
  - # 9
    frequency:    2.4789185975
  - # 10
    frequency:    2.4929451430
  - # 11
    frequency:    2.5373170519
  - # 12
    frequency:    3.0848604211
  - # 13
    frequency:    3.4034685629
  - # 14
    frequency:    3.8510040898
  - # 15
    frequency:    3.9046195671
  - # 16
    frequency:    4.1602063327
  - # 17
    frequency:    4.3594409038
  - # 18
    frequency:    4.6840149686
  - # 19
    frequency:    5.8392027441
  - # 20
    frequency:    5.9661053524
  - # 21
    frequency:    6.1752793087
  - # 22
    frequency:    6.4028794521
  - # 23
    frequency:    6.6488039784
  - # 24
    frequency:    6.9810044744
  - # 25
    frequency:    8.4771605656
  - # 26
    frequency:    9.0717584403
  - # 27
    frequency:    9.0877600855
  - # 28
    frequency:    9.3085747939
  - # 29
    frequency:    9.4889839747
  - # 30
    frequency:   12.8896316162

- q-position: [    0.0000000,    0.0000000,    0.0918367 ]
  distance:    0.0187834
  band:
  - # 1
    frequency:    0.7372959110
  - # 2
    frequency:    0.7557432129
  - # 3
    frequency:    1.0216171595
  - # 4
    frequency:    1.1989736020
  - # 5
    frequency:    1.3348238088
  - # 6
    frequency:    1.3493021214
  - # 7
    frequency:    2.0702367375
  - # 8
    frequency:    2.2093569280
  - # 9
    frequency:    2.4730711876
  - # 10
    frequency:    2.4924776323
  - # 11
    frequency:    2.5486383066
  - # 12
    frequency:    3.0943866582
  - # 13
    frequency:    3.4750894768
  - # 14
    frequency:    3.8622262414
  - # 15
    frequency:    3.9317968598
  - # 16
    frequency:    4.1718619955
  - # 17
    frequency:    4.3930191299
  - # 18
    frequency:    4.6945589008
  - # 19
    frequency:    5.8303932122
  - # 20
    frequency:    5.9413100468
  - # 21
    frequency:    6.1825126613
  - # 22
    frequency:    6.4284717408
  - # 23
    frequency:    6.5840209144
  - # 24
    frequency:    6.9982210264
  - # 25
    frequency:    8.4859894745
  - # 26
    frequency:    9.0728568567
  - # 27
    frequency:    9.0860821219
  - # 28
    frequency:    9.3619906142
  - # 29
    frequency:    9.4947041787
  - # 30
    frequency:   12.9074822545

- q-position: [    0.0000000,    0.0000000,    0.1020408 ]
  distance:    0.0208704
  band:
  - # 1
    frequency:    0.8099809166
  - # 2
    frequency:    0.8254835328
  - # 3
    frequency:    1.1113501175
  - # 4
    frequency:    1.1983182570
  - # 5
    frequency:    1.3581318369
  - # 6
    frequency:    1.3601648867
  - # 7
    frequency:    2.0725686995
  - # 8
    frequency:    2.2312265610
  - # 9
    frequency:    2.4747202832
  - # 10
    frequency:    2.4925056947
  - # 11
    frequency:    2.5618892987
  - # 12
    frequency:    3.1044196882
  - # 13
    frequency:    3.5463546783
  - # 14
    frequency:    3.8743096202
  - # 15
    frequency:    3.9624568127
  - # 16
    frequency:    4.1838088644
  - # 17
    frequency:    4.4322064011
  - # 18
    frequency:    4.7067291475
  - # 19
    frequency:    5.8211944330
  - # 20
    frequency:    5.9167535993
  - # 21
    frequency:    6.1904468730
  - # 22
    frequency:    6.4534132881
  - # 23
    frequency:    6.5134047003
  - # 24
    frequency:    7.0164574202
  - # 25
    frequency:    8.4953341529
  - # 26
    frequency:    9.0739399174
  - # 27
    frequency:    9.0848772370
  - # 28
    frequency:    9.4208321757
  - # 29
    frequency:    9.5002829116
  - # 30
    frequency:   12.9257787615

- q-position: [    0.0000000,    0.0000000,    0.1122449 ]
  distance:    0.0229574
  band:
  - # 1
    frequency:    0.8798576941
  - # 2
    frequency:    0.8900177202
  - # 3
    frequency:    1.1945539528
  - # 4
    frequency:    1.1982806426
  - # 5
    frequency:    1.3713383970
  - # 6
    frequency:    1.3824786356
  - # 7
    frequency:    2.0751988262
  - # 8
    frequency:    2.2462920213
  - # 9
    frequency:    2.4870414780
  - # 10
    frequency:    2.4931586463
  - # 11
    frequency:    2.5772380277
  - # 12
    frequency:    3.1147997969
  - # 13
    frequency:    3.6155925548
  - # 14
    frequency:    3.8870801550
  - # 15
    frequency:    3.9964478960
  - # 16
    frequency:    4.1957562894
  - # 17
    frequency:    4.4775733538
  - # 18
    frequency:    4.7206065684
  - # 19
    frequency:    5.8117940169
  - # 20
    frequency:    5.8924199191
  - # 21
    frequency:    6.1990352618
  - # 22
    frequency:    6.4374655822
  - # 23
    frequency:    6.4775722897
  - # 24
    frequency:    7.0354682408
  - # 25
    frequency:    8.5050623145
  - # 26
    frequency:    9.0749639883
  - # 27
    frequency:    9.0842370188
  - # 28
    frequency:    9.4847916077
  - # 29
    frequency:    9.5055679400
  - # 30
    frequency:   12.9440881263

- q-position: [    0.0000000,    0.0000000,    0.1224490 ]
  distance:    0.0250445
  band:
  - # 1
    frequency:    0.9467140743
  - # 2
    frequency:    0.9483254773
  - # 3
    frequency:    1.1989344066
  - # 4
    frequency:    1.2711808998
  - # 5
    frequency:    1.3832191826
  - # 6
    frequency:    1.4075425084
  - # 7
    frequency:    2.0781323737
  - # 8
    frequency:    2.2526400397
  - # 9
    frequency:    2.4945568173
  - # 10
    frequency:    2.5116290474
  - # 11
    frequency:    2.5948521743
  - # 12
    frequency:    3.1253690867
  - # 13
    frequency:    3.6814962812
  - # 14
    frequency:    3.9003351189
  - # 15
    frequency:    4.0333781627
  - # 16
    frequency:    4.2074240767
  - # 17
    frequency:    4.5296097739
  - # 18
    frequency:    4.7362501425
  - # 19
    frequency:    5.8024033869
  - # 20
    frequency:    5.8682812345
  - # 21
    frequency:    6.2082279083
  - # 22
    frequency:    6.3567349716
  - # 23
    frequency:    6.5008230101
  - # 24
    frequency:    7.0550150503
  - # 25
    frequency:    8.5150485860
  - # 26
    frequency:    9.0758832412
  - # 27
    frequency:    9.0842267648
  - # 28
    frequency:    9.5104222633
  - # 29
    frequency:    9.5535226971
  - # 30
    frequency:   12.9619807117

- q-position: [    0.0000000,    0.0000000,    0.1326531 ]
  distance:    0.0271315
  band:
  - # 1
    frequency:    0.9992100073
  - # 2
    frequency:    1.0103604917
  - # 3
    frequency:    1.2003782145
  - # 4
    frequency:    1.3413529004
  - # 5
    frequency:    1.3964098264
  - # 6
    frequency:    1.4330110556
  - # 7
    frequency:    2.0813680993
  - # 8
    frequency:    2.2510380025
  - # 9
    frequency:    2.4968084020
  - # 10
    frequency:    2.5472765352
  - # 11
    frequency:    2.6148930602
  - # 12
    frequency:    3.1359741600
  - # 13
    frequency:    3.7432889275
  - # 14
    frequency:    3.9138400535
  - # 15
    frequency:    4.0725805713
  - # 16
    frequency:    4.2185546794
  - # 17
    frequency:    4.5885775614
  - # 18
    frequency:    4.7536876101
  - # 19
    frequency:    5.7932705378
  - # 20
    frequency:    5.8443009233
  - # 21
    frequency:    6.2179720980
  - # 22
    frequency:    6.2717631701
  - # 23
    frequency:    6.5230453650
  - # 24
    frequency:    7.0748699063
  - # 25
    frequency:    8.5251795539
  - # 26
    frequency:    9.0766503644
  - # 27
    frequency:    9.0848853760
  - # 28
    frequency:    9.5147237006
  - # 29
    frequency:    9.6266422760
  - # 30
    frequency:   12.9790380252

- q-position: [    0.0000000,    0.0000000,    0.1428571 ]
  distance:    0.0292186
  band:
  - # 1
    frequency:    1.0414304553
  - # 2
    frequency:    1.0706337889
  - # 3
    frequency:    1.2026761375
  - # 4
    frequency:    1.4053332276
  - # 5
    frequency:    1.4116525336
  - # 6
    frequency:    1.4585882383
  - # 7
    frequency:    2.0848954160
  - # 8
    frequency:    2.2438239602
  - # 9
    frequency:    2.5000071619
  - # 10
    frequency:    2.5911244312
  - # 11
    frequency:    2.6375091755
  - # 12
    frequency:    3.1464681357
  - # 13
    frequency:    3.8007822837
  - # 14
    frequency:    3.9273249992
  - # 15
    frequency:    4.1131841917
  - # 16
    frequency:    4.2289240008
  - # 17
    frequency:    4.6543544990
  - # 18
    frequency:    4.7729076442
  - # 19
    frequency:    5.7847000094
  - # 20
    frequency:    5.8204355697
  - # 21
    frequency:    6.1831194981
  - # 22
    frequency:    6.2282127786
  - # 23
    frequency:    6.5441252803
  - # 24
    frequency:    7.0948180724
  - # 25
    frequency:    8.5353584874
  - # 26
    frequency:    9.0772173287
  - # 27
    frequency:    9.0862259356
  - # 28
    frequency:    9.5183640814
  - # 29
    frequency:    9.7037327132
  - # 30
    frequency:   12.9948594029

- q-position: [    0.0000000,    0.0000000,    0.1530612 ]
  distance:    0.0313056
  band:
  - # 1
    frequency:    1.0740798260
  - # 2
    frequency:    1.1274012280
  - # 3
    frequency:    1.2056915630
  - # 4
    frequency:    1.4296216145
  - # 5
    frequency:    1.4634837696
  - # 6
    frequency:    1.4840009884
  - # 7
    frequency:    2.0886911976
  - # 8
    frequency:    2.2332855881
  - # 9
    frequency:    2.5042308786
  - # 10
    frequency:    2.6403306646
  - # 11
    frequency:    2.6628296106
  - # 12
    frequency:    3.1567119689
  - # 13
    frequency:    3.8542765878
  - # 14
    frequency:    3.9404796957
  - # 15
    frequency:    4.1542855911
  - # 16
    frequency:    4.2383494173
  - # 17
    frequency:    4.7263242850
  - # 18
    frequency:    4.7938548945
  - # 19
    frequency:    5.7770834458
  - # 20
    frequency:    5.7966365938
  - # 21
    frequency:    6.0913951559
  - # 22
    frequency:    6.2388930286
  - # 23
    frequency:    6.5639554475
  - # 24
    frequency:    7.1146600662
  - # 25
    frequency:    8.5455094425
  - # 26
    frequency:    9.0775362033
  - # 27
    frequency:    9.0882368333
  - # 28
    frequency:    9.5212483398
  - # 29
    frequency:    9.7843454916
  - # 30
    frequency:   13.0090676310

- q-position: [    0.0000000,    0.0000000,    0.1632653 ]
  distance:    0.0333926
  band:
  - # 1
    frequency:    1.0971580552
  - # 2
    frequency:    1.1805645333
  - # 3
    frequency:    1.2088507048
  - # 4
    frequency:    1.4505895291
  - # 5
    frequency:    1.5090050569
  - # 6
    frequency:    1.5162168119
  - # 7
    frequency:    2.0927164258
  - # 8
    frequency:    2.2210947847
  - # 9
    frequency:    2.5095403104
  - # 10
    frequency:    2.6909578363
  - # 11
    frequency:    2.6926884561
  - # 12
    frequency:    3.1665750868
  - # 13
    frequency:    3.9043483348
  - # 14
    frequency:    3.9529473521
  - # 15
    frequency:    4.1951326955
  - # 16
    frequency:    4.2466940386
  - # 17
    frequency:    4.8033492584
  - # 18
    frequency:    4.8164288324
  - # 19
    frequency:    5.7709459129
  - # 20
    frequency:    5.7728516197
  - # 21
    frequency:    5.9972091340
  - # 22
    frequency:    6.2499545301
  - # 23
    frequency:    6.5824362745
  - # 24
    frequency:    7.1342131851
  - # 25
    frequency:    8.5555804599
  - # 26
    frequency:    9.0775600112
  - # 27
    frequency:    9.0908834254
  - # 28
    frequency:    9.5232936850
  - # 29
    frequency:    9.8680057770
  - # 30
    frequency:   13.0213135727

- q-position: [    0.0000000,    0.0000000,    0.1734694 ]
  distance:    0.0354797
  band:
  - # 1
    frequency:    1.1118549800
  - # 2
    frequency:    1.2111269469
  - # 3
    frequency:    1.2300636773
  - # 4
    frequency:    1.4741610413
  - # 5
    frequency:    1.5333897270
  - # 6
    frequency:    1.5639500888
  - # 7
    frequency:    2.0969129844
  - # 8
    frequency:    2.2083881349
  - # 9
    frequency:    2.5159783227
  - # 10
    frequency:    2.7219663327
  - # 11
    frequency:    2.7465921526
  - # 12
    frequency:    3.1759353704
  - # 13
    frequency:    3.9516332617
  - # 14
    frequency:    3.9643165638
  - # 15
    frequency:    4.2352257593
  - # 16
    frequency:    4.2538669265
  - # 17
    frequency:    4.8404866029
  - # 18
    frequency:    4.8838082940
  - # 19
    frequency:    5.7490256654
  - # 20
    frequency:    5.7670151289
  - # 21
    frequency:    5.9012174471
  - # 22
    frequency:    6.2613380401
  - # 23
    frequency:    6.5994769207
  - # 24
    frequency:    7.1533126344
  - # 25
    frequency:    8.5655456175
  - # 26
    frequency:    9.0772436141
  - # 27
    frequency:    9.0941102830
  - # 28
    frequency:    9.5244289381
  - # 29
    frequency:    9.9542178215
  - # 30
    frequency:   13.0312799066

- q-position: [    0.0000000,    0.0000000,    0.1836735 ]
  distance:    0.0375667
  band:
  - # 1
    frequency:    1.1200707512
  - # 2
    frequency:    1.2114789374
  - # 3
    frequency:    1.2758800189
  - # 4
    frequency:    1.4993155523
  - # 5
    frequency:    1.5569810255
  - # 6
    frequency:    1.6070712485
  - # 7
    frequency:    2.1012010037
  - # 8
    frequency:    2.1959556481
  - # 9
    frequency:    2.5235688674
  - # 10
    frequency:    2.7558925496
  - # 11
    frequency:    2.8008820644
  - # 12
    frequency:    3.1846785156
  - # 13
    frequency:    3.9741110507
  - # 14
    frequency:    3.9966816566
  - # 15
    frequency:    4.2598197596
  - # 16
    frequency:    4.2743124575
  - # 17
    frequency:    4.8658493240
  - # 18
    frequency:    4.9656397192
  - # 19
    frequency:    5.7251021962
  - # 20
    frequency:    5.7663208485
  - # 21
    frequency:    5.8041258632
  - # 22
    frequency:    6.2729838566
  - # 23
    frequency:    6.6149963498
  - # 24
    frequency:    7.1718123644
  - # 25
    frequency:    8.5754057882
  - # 26
    frequency:    9.0765446134
  - # 27
    frequency:    9.0978440677
  - # 28
    frequency:    9.5245940583
  - # 29
    frequency:   10.0424709937
  - # 30
    frequency:   13.0386840904

- q-position: [    0.0000000,    0.0000000,    0.1938776 ]
  distance:    0.0396538
  band:
  - # 1
    frequency:    1.1235993176
  - # 2
    frequency:    1.2093440407
  - # 3
    frequency:    1.3180383358
  - # 4
    frequency:    1.5247307754
  - # 5
    frequency:    1.5796431515
  - # 6
    frequency:    1.6459145600
  - # 7
    frequency:    2.1054772252
  - # 8
    frequency:    2.1843792527
  - # 9
    frequency:    2.5323156141
  - # 10
    frequency:    2.7927365742
  - # 11
    frequency:    2.8547237996
  - # 12
    frequency:    3.1926967810
  - # 13
    frequency:    3.9817772194
  - # 14
    frequency:    4.0398982501
  - # 15
    frequency:    4.2645409934
  - # 16
    frequency:    4.3123195166
  - # 17
    frequency:    4.8923107093
  - # 18
    frequency:    5.0463372901
  - # 19
    frequency:    5.7010240603
  - # 20
    frequency:    5.7067059933
  - # 21
    frequency:    5.7703225610
  - # 22
    frequency:    6.2848322724
  - # 23
    frequency:    6.6289243603
  - # 24
    frequency:    7.1895857041
  - # 25
    frequency:    8.5851880636
  - # 26
    frequency:    9.0754242534
  - # 27
    frequency:    9.1019970154
  - # 28
    frequency:    9.5237398489
  - # 29
    frequency:   10.1322461994
  - # 30
    frequency:   13.0432806711

- q-position: [    0.0000000,    0.0000000,    0.2040816 ]
  distance:    0.0417408
  band:
  - # 1
    frequency:    1.1236963866
  - # 2
    frequency:    1.2047280158
  - # 3
    frequency:    1.3566073028
  - # 4
    frequency:    1.5491256407
  - # 5
    frequency:    1.6012780101
  - # 6
    frequency:    1.6807502293
  - # 7
    frequency:    2.1096148522
  - # 8
    frequency:    2.1741145435
  - # 9
    frequency:    2.5422002609
  - # 10
    frequency:    2.8324606921
  - # 11
    frequency:    2.9075284484
  - # 12
    frequency:    3.1998870680
  - # 13
    frequency:    3.9866703231
  - # 14
    frequency:    4.0815409194
  - # 15
    frequency:    4.2680487782
  - # 16
    frequency:    4.3492727934
  - # 17
    frequency:    4.9196466814
  - # 18
    frequency:    5.1229126725
  - # 19
    frequency:    5.6098139011
  - # 20
    frequency:    5.6767343178
  - # 21
    frequency:    5.7810262526
  - # 22
    frequency:    6.2968240130
  - # 23
    frequency:    6.6412025677
  - # 24
    frequency:    7.2065258603
  - # 25
    frequency:    8.5949439221
  - # 26
    frequency:    9.0738483097
  - # 27
    frequency:    9.1064709225
  - # 28
    frequency:    9.5218278099
  - # 29
    frequency:   10.2230224472
  - # 30
    frequency:   13.0448630532

- q-position: [    0.0000000,    0.0000000,    0.2142857 ]
  distance:    0.0438278
  band:
  - # 1
    frequency:    1.1210801675
  - # 2
    frequency:    1.1980162343
  - # 3
    frequency:    1.3916980721
  - # 4
    frequency:    1.5714486723
  - # 5
    frequency:    1.6218229436
  - # 6
    frequency:    1.7117856236
  - # 7
    frequency:    2.1134652471
  - # 8
    frequency:    2.1655335184
  - # 9
    frequency:    2.5531808230
  - # 10
    frequency:    2.8749908032
  - # 11
    frequency:    2.9588972305
  - # 12
    frequency:    3.2061481835
  - # 13
    frequency:    3.9880415455
  - # 14
    frequency:    4.1217481264
  - # 15
    frequency:    4.2703837793
  - # 16
    frequency:    4.3852344486
  - # 17
    frequency:    4.9476247779
  - # 18
    frequency:    5.1919595204
  - # 19
    frequency:    5.5144089563
  - # 20
    frequency:    5.6521769651
  - # 21
    frequency:    5.8009563472
  - # 22
    frequency:    6.3089006527
  - # 23
    frequency:    6.6517853197
  - # 24
    frequency:    7.2225463437
  - # 25
    frequency:    8.6047463181
  - # 26
    frequency:    9.0717879456
  - # 27
    frequency:    9.1111614529