80   
7    

1    
 -0.0049016684936120   0.0049016684936120   0.0072074469791642
   0.0116340617   -0.0116240545   -0.0320012679
  -0.0008483301    0.0008551930    0.0018552292
   0.0000675894   -0.0000584325    0.0003008811
   0.0000075170    0.0000035778   -0.0001692251
  -0.0005077438   -0.0008378013    0.0010248496
  -0.0000470633    0.0013559272   -0.0004029261
  -0.0013666754    0.0000496408   -0.0003990869
   0.0008761220    0.0004680155    0.0010253483
  -0.0014996760    0.0014994692   -0.0009987584
   0.0006906270   -0.0006878851    0.0018320737
   0.0001828264   -0.0001762204    0.0018236965
  -0.0015306928    0.0015380683   -0.0009265727
  -0.0002186368    0.0002128898    0.0004187422
   0.0005511695   -0.0006231789   -0.0008939763
   0.0006126597   -0.0005509797   -0.0008903808
  -0.0001871344    0.0001739239    0.0004167512
   0.0015385159    0.0058879636    0.0029033455
  -0.0077418584   -0.0020331864    0.0024956571
   0.0007026638    0.0006486642    0.0003875095
  -0.0007407655   -0.0004863923    0.0001210117
  -0.0004665626    0.0007406812    0.0008787394
   0.0025007459   -0.0042685424   -0.0037183917
  -0.0006527200    0.0006853028    0.0011507934
   0.0024391891   -0.0014025549   -0.0033285426
   0.0014097140   -0.0024463619   -0.0033246991
  -0.0006792980    0.0006457742    0.0011522137
   0.0042766315   -0.0025070049   -0.0037179362
  -0.0007331173    0.0004591193    0.0008796789
  -0.0058953319   -0.0015312433    0.0029028958
   0.0020339238    0.0077417854    0.0024942553
  -0.0006516471   -0.0007002935    0.0003869425
   0.0004918031    0.0007350733    0.0001230824
  -0.0000636305    0.0001751030   -0.0001592239
  -0.0000122273   -0.0001701369    0.0000972938
   0.0002421732    0.0007550519    0.0035664604
  -0.0000923308   -0.0003401259   -0.0014204247
   0.0002981725    0.0006106269    0.0025620919
  -0.0001776861   -0.0006044664   -0.0018369757
  -0.0002171396    0.0004402458   -0.0005782295
  -0.0000143772   -0.0001380547    0.0001383619
  -0.0006109915   -0.0002986617    0.0025621976
   0.0006041584    0.0001772274   -0.0018369292
  -0.0004405275    0.0002169161   -0.0005782322
   0.0001382828    0.0000140106    0.0001384017
   0.0003396301    0.0000921046   -0.0014204353
  -0.0007554906   -0.0002425790    0.0035665404
   0.0001697434    0.0000119888    0.0000972827
  -0.0001754117    0.0000631642   -0.0001592769
   0.0002242458   -0.0002558154    0.0026129292
   0.0002797361   -0.0003112839   -0.0003043937
  -0.0004713390    0.0004398487    0.0007462843
   0.0001905951   -0.0002221534   -0.0002641540
   0.0011207177    0.0011790989   -0.0002076453
  -0.0008953272   -0.0013638550   -0.0001171675
   0.0013324691    0.0008636532   -0.0001170919
  -0.0012105263   -0.0011524441   -0.0002076433
   0.0015179501   -0.0014872366   -0.0025763344
  -0.0050548479    0.0050858807    0.0103439647
  -0.0001253572    0.0001562188   -0.0001823459
   0.0000064089    0.0000244864    0.0000814714
  -0.0001848464   -0.0001109364    0.0003323839
   0.0000235878    0.0005347229    0.0002496895
  -0.0005039196    0.0000072654    0.0002496736
   0.0001424730    0.0002154788    0.0003322369
  -0.0001547636    0.0000674630    0.0003729588
   0.0000738920    0.0001253617   -0.0002258488
   0.0006406055    0.0042819026    0.0062665360
   0.0014432486   -0.0011974980   -0.0003361255
   0.0012240279   -0.0008315865   -0.0001284897
  -0.0023236329    0.0001989220   -0.0009227831
   0.0000601519    0.0000972736   -0.0001119762
   0.0000035031   -0.0001545146    0.0003295628
  -0.0043134149   -0.0006096954    0.0062663757
   0.0011657344   -0.0014122935   -0.0003361125
  -0.0000990139    0.0001856717    0.0003729536
  -0.0001569413   -0.0000430314   -0.0002258963
  -0.0002306825    0.0023547126   -0.0009227835
   0.0008000247   -0.0011931290   -0.0001285196
   0.0001232557    0.0000274888    0.0003294431
  -0.0001288686   -0.0000293284   -0.0001119886

1    
  0.0049016684936120  -0.0049016684936120  -0.0072074469791642
  -0.0113459476    0.0113517384    0.0317719522
   0.0009945258   -0.0009873810   -0.0018306713
  -0.0001507852    0.0001599469   -0.0002644839
   0.0000176560   -0.0000062886    0.0001308844
   0.0003453323    0.0007943865   -0.0010352916
   0.0000522362   -0.0013914393    0.0003799785
   0.0013809341   -0.0000499552    0.0003838566
  -0.0007561266   -0.0003849352   -0.0010343934
   0.0014928046   -0.0014930301    0.0009921548
  -0.0006926066    0.0006954778   -0.0018251248
  -0.0002057587    0.0002124122   -0.0018329585
   0.0015814976   -0.0015741161    0.0008946735
   0.0001995938   -0.0002109051   -0.0004180578
  -0.0005692231    0.0006156849    0.0009491098
  -0.0006259276    0.0005693357    0.0009526527
   0.0002378358   -0.0002429489   -0.0004200351
  -0.0016705462   -0.0059258014   -0.0029015731
   0.0076760319    0.0020900254   -0.0025028306
  -0.0007328145   -0.0006442626   -0.0003925291
   0.0007515930    0.0004937615   -0.0001280592
   0.0004583089   -0.0007544110   -0.0008851206
  -0.0024365994    0.0042618829    0.0037366643
   0.0006419341   -0.0006982520   -0.0011527855
  -0.0024859782    0.0013165117    0.0033198580
  -0.0013093496    0.0024788193    0.0033237262
   0.0007043099   -0.0006488066   -0.0011514053
  -0.0042536868    0.0024303363    0.0037371277
   0.0007623527   -0.0004656982   -0.0008841297
   0.0059184744    0.0016779284   -0.0029020948
  -0.0020894293   -0.0076760487   -0.0025042348
   0.0006417532    0.0007352547   -0.0003930486
  -0.0004882836   -0.0007573713   -0.0001259806
   0.0000478568   -0.0001776794    0.0001612819
   0.0000082025    0.0001701780   -0.0000970161
  -0.0002896322   -0.0007546934   -0.0035374230
   0.0000907190    0.0003353849    0.0014191139
  -0.0002330258   -0.0006171740   -0.0025823959
   0.0001851866    0.0006129648    0.0018322873
   0.0002228810   -0.0004542445    0.0005716371
   0.0000073911    0.0001573593   -0.0001354475
   0.0006171322    0.0002326850   -0.0025824532
  -0.0006131153   -0.0001855709    0.0018322837
   0.0004541028   -0.0002233095    0.0005717151
  -0.0001575464   -0.0000078361   -0.0001354283
  -0.0003357550   -0.0000909217    0.0014190791
   0.0007544757    0.0002893886   -0.0035375435
  -0.0001705388   -0.0000084997   -0.0000970356
   0.0001775154   -0.0000482062    0.0001613440
  -0.0001770286    0.0001455432   -0.0026181439
  -0.0002372653    0.0002057372    0.0003028538
   0.0005123333   -0.0005438760   -0.0007491871
  -0.0001462425    0.0001147353    0.0002636359
  -0.0010806187   -0.0012885263    0.0002334033
   0.0009350572    0.0012514126    0.0001295618
  -0.0012832082   -0.0009665377    0.0001295004
   0.0012570299    0.0010489970    0.0002334496
  -0.0015801218    0.0016111836    0.0026067625
   0.0047425538   -0.0047118509   -0.0098243417
   0.0000845337   -0.0000536228    0.0001846813
  -0.0000477022    0.0000786118   -0.0000791354
   0.0001401047    0.0002120101   -0.0003478947
  -0.0000667954   -0.0004335588   -0.0002607972
   0.0004643980    0.0000977357   -0.0002607753
  -0.0001815848   -0.0001092689   -0.0003477935
   0.0001164526   -0.0001776488   -0.0003748398
  -0.0001164100   -0.0002292695    0.0002239743
  -0.0007938600   -0.0044788550   -0.0064313709
  -0.0014794498    0.0010913994    0.0003464873
  -0.0012677159    0.0007229124    0.0001320306
   0.0022609835   -0.0002996103    0.0009223590
  -0.0000987375   -0.0002048361    0.0001109105
  -0.0000434695    0.0000459236   -0.0003534217
   0.0044471049    0.0008249568   -0.0064312453
  -0.0011229579    0.0015105134    0.0003464639
   0.0001461466   -0.0000855183   -0.0003748652
   0.0001977277    0.0001473206    0.0002239567
   0.0002679962   -0.0022301514    0.0009223459
  -0.0007545022    0.0012984596    0.0001320609
  -0.0000779955    0.0000743818   -0.0003533480
   0.0001732828    0.0001296205    0.0001108928

17   
 -0.0049016684936120   0.0049016684936120   0.0072074469791642
   0.0024291321    0.0063020067    0.0033996233
  -0.0065219801   -0.0013948187    0.0028115656
   0.0005579175    0.0008073808    0.0001864341
  -0.0006118538   -0.0005671472    0.0002597806
  -0.0005547815    0.0003782571    0.0010789706
   0.0030696851   -0.0030789464   -0.0041447494
  -0.0010598929    0.0005404825    0.0009984525
   0.0027356195   -0.0006063981   -0.0035747006
   0.0026938853   -0.0006189242   -0.0036064254
  -0.0010233606    0.0005501152    0.0009914726
   0.0030674826   -0.0030099922   -0.0041507263
  -0.0005345166    0.0002461811    0.0010648041
  -0.0006377266   -0.0005776034    0.0002663991
   0.0005801665    0.0008282392    0.0001866566
  -0.0065844875   -0.0012873659    0.0028468574
   0.0024228667    0.0061589797    0.0033603299
   0.0537866111   -0.0538145407   -0.0603814608
  -0.0040339883    0.0057765509    0.0069123805
   0.0039186410   -0.0065520954   -0.0068876255
  -0.0027261766    0.0027299741    0.0030962386
  -0.0057973985   -0.0038947578    0.0014970475
   0.0050297171    0.0036596924   -0.0002797130
  -0.0061266114   -0.0025577375   -0.0002802112
   0.0065356747    0.0040632123   -0.0014771006
  -0.0008299990   -0.0001177394    0.0220996211
  -0.0181298852    0.0117180143    0.0003714453
  -0.0181787937    0.0117568089    0.0003640271
  -0.0007418356    0.0000132708    0.0219903742
  -0.0023711523   -0.0041056777    0.0003693213
  -0.0000742050    0.0002365282    0.0002759754
  -0.0000771769    0.0002495241    0.0002757548
  -0.0023331395   -0.0040651599    0.0003678357
   0.0003468969   -0.0001266551   -0.0036536164
   0.0013259724   -0.0004638342    0.0046095403
   0.0025768467   -0.0021725304   -0.0050547634
  -0.0020590611    0.0026875408    0.0155675985
  -0.0006743147   -0.0000707863    0.0008953906
   0.0004194630    0.0002537957    0.0000201082
  -0.0002735521   -0.0005290824    0.0000191790
   0.0010222141    0.0011620180   -0.0013190532
  -0.0020246270    0.0026652784    0.0167226436
   0.0025688855   -0.0021734371   -0.0050542985
   0.0013335001   -0.0004705959    0.0046119935
   0.0003462918   -0.0001267929   -0.0036640297
   0.0010315343    0.0011706578   -0.0013371816
  -0.0002737167   -0.0005278044    0.0000209374
   0.0004184875    0.0002538057    0.0000202521
  -0.0006831435   -0.0000826707    0.0008736617
  -0.0034923298   -0.0037310828   -0.0027842209
   0.0053907432    0.0022875068    0.0003503240
  -0.0017076035   -0.0039949139   -0.0001481433
   0.0032956995    0.0040674873   -0.0023815351
   0.0006884403    0.0002236385   -0.0003580606
  -0.0000867272    0.0003571288    0.0006732455
   0.0005159194   -0.0005640440   -0.0009050248
  -0.0049333897   -0.0001288797    0.0021544410
  -0.0052051629   -0.0001620619    0.0021705734
   0.0004730802   -0.0004627926   -0.0009072569
  -0.0001282918    0.0004599961    0.0006753790
   0.0006479046    0.0003234799   -0.0003587608
   0.0032645826    0.0041849328   -0.0024023453
  -0.0017531159   -0.0038768932   -0.0001496096
   0.0053447530    0.0023965992    0.0003487686
  -0.0035191656   -0.0036120636   -0.0027598993
  -0.0039840319    0.0031692919   -0.0017328838
   0.0033115370   -0.0026479574   -0.0003577100
  -0.0095060974    0.0191409053    0.0021150084
   0.0038129741   -0.0036151364   -0.0034331577
   0.0014018018   -0.0002028613   -0.0001492942
  -0.0004728127   -0.0003103970    0.0001971913
   0.0004493070    0.0002908873   -0.0004289775
  -0.0015162280   -0.0002738476    0.0003496294
  -0.0014859534   -0.0001527081    0.0003489131
   0.0004920236    0.0003950901   -0.0004287011
  -0.0004290197   -0.0002073386    0.0001970461
   0.0014516491   -0.0001004787   -0.0001481243
   0.0038677970   -0.0035181160   -0.0034482863
  -0.0088920519    0.0183249069    0.0022070340
   0.0033540140   -0.0025447819   -0.0003588511
  -0.0039303598    0.0032692826   -0.0017137286

33   
 -0.0049016684936120   0.0049016684936120   0.0072074469791642
  -0.0003624213    0.0008556471   -0.0007852784
   0.0000672447   -0.0001875913    0.0001092428
   0.0002528158    0.0013993888    0.0031075785
  -0.0005660504   -0.0010034995   -0.0013315950
   0.0000664329   -0.0000495305    0.0030296673
   0.0003975775   -0.0010598020   -0.0012382203
   0.0000420019    0.0008661361   -0.0006851912
   0.0000292472   -0.0001642756    0.0001236540
   0.0009725803    0.0005993508   -0.0013303637
  -0.0014244230   -0.0001485605    0.0031120451
   0.0001865961    0.0000181345    0.0001081355
  -0.0007345387    0.0002869411   -0.0007825685
   0.0001038705   -0.0002568645    0.0030178945
   0.0010584395   -0.0003269131   -0.0012412275
  -0.0009327748   -0.0000562123   -0.0006899468
   0.0001664234   -0.0000242856    0.0001209353
   0.0001319291   -0.0003532018   -0.0036658245
  -0.0014630819    0.0023828992    0.0008032425
   0.0039935664   -0.0063397335   -0.0012236556
  -0.0026247150    0.0019882414    0.0167255761
  -0.0048621627   -0.0028603703   -0.0000469500
   0.0004813101    0.0003228627    0.0000280433
  -0.0002171717   -0.0004647734    0.0000273770
   0.0038656690    0.0026141915   -0.0003788734
  -0.0021089255    0.0027377427    0.0154064130
   0.0063851602   -0.0040263466   -0.0012054824
  -0.0023584167    0.0014455177    0.0007808122
   0.0003493754   -0.0001256331   -0.0036675481
   0.0028597480    0.0048704875   -0.0000528353
  -0.0003796204   -0.0004765019    0.0000254911
   0.0004629995    0.0002140270    0.0000252312
  -0.0025969840   -0.0038660077   -0.0003697257
   0.0109245131   -0.0109265806   -0.0893954960
  -0.0017681026    0.0017661398    0.0038889319
   0.0005442093   -0.0005459872    0.0007595211
  -0.0000777642    0.0000773784    0.0021802080
  -0.0010831060   -0.0012316562    0.0023286354
   0.0000332720    0.0006819675   -0.0003413818
  -0.0006830831   -0.0000330631   -0.0003414844
   0.0012300182    0.0010793277    0.0023197978
  -0.0001793699    0.0001794362    0.0105897267
  -0.0004817163    0.0002224940   -0.0016052514
  -0.0002283605    0.0004841084   -0.0015827841
  -0.0001919779    0.0001875047    0.0106466928
   0.0003144561   -0.0003153103   -0.0017724796
  -0.0000238745    0.0000229211    0.0003287824
  -0.0001035136    0.0001056190    0.0003289880
   0.0000561504   -0.0000588936   -0.0014155672
  -0.0040179163   -0.0070200559    0.0032945114
   0.0000284930    0.0006523127    0.0001513322
   0.0000418781   -0.0001294814   -0.0003255501
   0.0008351034    0.0006712696    0.0005197683
  -0.0071320357   -0.0062801053    0.0046469691
   0.0001008612    0.0007009873    0.0001939092
   0.0000823913   -0.0003358669   -0.0000475625
   0.0006868461    0.0006406407    0.0003847988
  -0.0007437446   -0.0007596107    0.0005202187
   0.0000562152    0.0000267608   -0.0003233007
  -0.0007208132    0.0000505898    0.0001552405
   0.0069602273    0.0040866847    0.0032695413
   0.0061598603    0.0071764738    0.0046441210
  -0.0007822023   -0.0000351071    0.0001905498
   0.0002634400   -0.0000058729   -0.0000460928
  -0.0007165739   -0.0006185827    0.0003850145
  -0.0098881512    0.0069050342    0.0079188805
  -0.0070532873    0.0099266703    0.0080165217
   0.0004211362   -0.0004893046    0.0002712534
   0.0004195449   -0.0004981857    0.0002683976
   0.0001662892   -0.0002662924   -0.0002574879
  -0.0001224711   -0.0003699363    0.0000598695
   0.0001950711   -0.0002365959   -0.0002550074
   0.0002954953    0.0000477663    0.0000588405
  -0.0004242071   -0.0001256794    0.0000472660
   0.0002000354    0.0004967311    0.0000469064
  -0.0005438798   -0.0001279596    0.0001254261
   0.0001999763    0.0006182874    0.0001225313
   0.0042248744   -0.0032024273   -0.0000143947
  -0.0010445437    0.0010056765    0.0006351106
   0.0032591023   -0.0041249653   -0.0000655530
  -0.0009304666    0.0011132729    0.0006350781

49   
 -0.0049016684936120   0.0049016684936120   0.0072074469791642
   0.0003295952   -0.0004012860    0.0028892033
   0.0002754052   -0.0003839229   -0.0002636133
  -0.0006297152    0.0003927912    0.0004772832
   0.0000782044   -0.0000647488   -0.0004152245
   0.0003797875    0.0003485599   -0.0000896270
  -0.0000290444   -0.0006171412   -0.0000263129
   0.0005729752    0.0001099842   -0.0000224891
  -0.0003852831   -0.0002698296   -0.0000875733
   0.0017920479   -0.0018632941   -0.0023421268
  -0.0052278518    0.0052286949    0.0101066630
   0.0000013304   -0.0000697997   -0.0000455222
   0.0000999173   -0.0003833695    0.0000354348
  -0.0000395960    0.0001936809    0.0002451365
  -0.0001326482    0.0006075846    0.0001161147
  -0.0006154398    0.0002032542    0.0001008014
  -0.0001247876   -0.0000040191    0.0002434340
  -0.0005431294   -0.0004881692   -0.0029263803
   0.0023617495   -0.0006436965    0.0003627565
   0.0004684404   -0.0017344461   -0.0001496905
   0.0004383690    0.0010669756   -0.0022283254
  -0.0001830191   -0.0005651392   -0.0003521583
  -0.0002589589    0.0012534892    0.0004076624
   0.0004450213   -0.0009678412   -0.0006303173
  -0.0074225312   -0.0023794193    0.0021986947
   0.0023859460    0.0074151917    0.0022033922
   0.0009714236   -0.0004517683   -0.0006285718
  -0.0005987475    0.0002527520    0.0004088897
   0.0006431103    0.0001083251   -0.0003508078
   0.0004809139    0.0005513447   -0.0029271740
   0.0006441514   -0.0023618081    0.0003605074
   0.0017267089   -0.0004661683   -0.0001507574
  -0.0010605007   -0.0004439746   -0.0022272326
  -0.0014475848   -0.0034597474    0.0026285757
  -0.0001154328    0.0002118181    0.0004063750
   0.0000122805   -0.0000876354   -0.0003343946
   0.0000722336    0.0001428947    0.0004068470
  -0.0034246053   -0.0034213085    0.0052669552
  -0.0000203218    0.0006544682    0.0001919099
  -0.0000723402   -0.0000404730   -0.0003024386
   0.0002277326    0.0000962810    0.0004872629
   0.0034213840    0.0034247698    0.0052692535
  -0.0006547437    0.0000198118    0.0001915915
   0.0000404059    0.0000718129   -0.0003026861
  -0.0000967596   -0.0002282603    0.0004893771
  -0.0001435997   -0.0000723231    0.0004068764
   0.0000875250   -0.0000128592   -0.0003340209
  -0.0002125278    0.0001155956    0.0004066370
   0.0034586960    0.0014479852    0.0026270224
   0.0155610375   -0.0155936710   -0.0253648190
  -0.0002520224    0.0002205316    0.0004683766
   0.0001122259   -0.0001438842   -0.0000221946
  -0.0000629409    0.0000314818    0.0001444535
  -0.0010560023   -0.0012596887    0.0009135266
   0.0005126759    0.0013552689   -0.0000778534
  -0.0013867216   -0.0005444183   -0.0000779835
   0.0012282948    0.0010247582    0.0009141861
  -0.0000866146    0.0001175368    0.0007546906
  -0.0013188654    0.0013499375   -0.0006365632
  -0.0002749142    0.0003057451   -0.0000013414
   0.0001262265   -0.0000957288    0.0004618122
   0.0006086259    0.0015619751    0.0005640664
  -0.0001846348   -0.0000917314    0.0000554000
   0.0001227216    0.0002153161    0.0000552709
  -0.0015313875   -0.0005778827    0.0005646446
  -0.0019230382    0.0049784917   -0.0009563204
  -0.0006722312   -0.0005323088    0.0010147268
   0.0003869913   -0.0003266009    0.0001588252
  -0.0006180638    0.0004223912    0.0000186517
  -0.0005048817    0.0003769908    0.0002649380
   0.0006524401    0.0024334836   -0.0009628964
  -0.0003554600    0.0001629318    0.0000201960
   0.0003490392   -0.0003603574    0.0001852458
   0.0002951833   -0.0003559099    0.0001587853
  -0.0004541911    0.0006489754    0.0000185889
  -0.0050103958    0.0019543079   -0.0009555493
   0.0005005205    0.0007034224    0.0010155624
  -0.0024653776   -0.0006214479   -0.0009631878
  -0.0004089374    0.0005354803    0.0002646801
   0.0003287451   -0.0003178394    0.0001849184
  -0.0001942339    0.0003868262    0.0000199509

49   
  0.0049016684936120  -0.0049016684936120  -0.0072074469791642
  -0.0004284516    0.0003969893   -0.0028652537
  -0.0002090276    0.0002158929    0.0002712934
   0.0006985631   -0.0006892223   -0.0004699326
  -0.0000611796    0.0000722968    0.0004041810
  -0.0004728371   -0.0002915906    0.0001071138
   0.0000911513    0.0005718920    0.0000326663
  -0.0005826134   -0.0000889792    0.0000364234
   0.0003300529    0.0004331075    0.0001030622
  -0.0018424663    0.0018425165    0.0023216553
   0.0049418702   -0.0049392831   -0.0095917185
  -0.0000116178    0.0000182537    0.0000420255
   0.0000863043   -0.0000790457   -0.0000540008
   0.0000735334   -0.0001148052   -0.0002321725
   0.0001577984   -0.0004521218   -0.0001167653
   0.0004418462   -0.0001575971   -0.0001132243
   0.0001414145   -0.0001177001   -0.0002391260
   0.0005446150    0.0004842969    0.0029374518
  -0.0023655354    0.0007405896   -0.0003557121
  -0.0004747779    0.0017381751    0.0001461445
  -0.0004599777   -0.0010481257    0.0022221167
   0.0001607696    0.0005616558    0.0003477461
   0.0002477017   -0.0006587828   -0.0004105886
  -0.0004562889    0.0009643448    0.0006211940
   0.0072939817    0.0023617808   -0.0021567397
  -0.0023546508   -0.0073012233   -0.0021528283
  -0.0009584086    0.0004494535    0.0006226370
   0.0006667539   -0.0002540215   -0.0004101140
  -0.0005538726   -0.0001682364    0.0003487197
  -0.0004916524   -0.0005373058    0.0029369865
  -0.0006999504    0.0023654470   -0.0003571495
  -0.0017407416    0.0004771543    0.0001456269
   0.0010535142    0.0004541380    0.0022242356
   0.0014473104    0.0034441349   -0.0026410705
   0.0001153471   -0.0002134121   -0.0004011292
  -0.0000105837    0.0000853226    0.0003346474
  -0.0000729612   -0.0001465035   -0.0004112816
   0.0034506712    0.0034567657   -0.0052889820
   0.0000217480   -0.0006474178   -0.0001944334
   0.0000723233    0.0000382675    0.0003025790
  -0.0002246612   -0.0000981968   -0.0004803618
  -0.0034568479   -0.0034511375   -0.0052889790
   0.0006470653   -0.0000222675   -0.0001943793
  -0.0000384576   -0.0000727304    0.0003025861
   0.0000979639    0.0002241986   -0.0004803354
   0.0001460667    0.0000727461   -0.0004113234
  -0.0000856290    0.0000102556    0.0003346008
   0.0002129547   -0.0001156946   -0.0004011409
  -0.0034443544   -0.0014477812   -0.0026410532
  -0.0151863475    0.0151562609    0.0247343403
   0.0002943656   -0.0003258956   -0.0004683129
  -0.0000689633    0.0000374377    0.0000223920
   0.0001057004   -0.0001372604   -0.0001431070
   0.0010999090    0.0011555487   -0.0009180458
  -0.0004686298   -0.0014617672    0.0000778286
   0.0014301886    0.0004370712    0.0000778566
  -0.0011869966   -0.0011316320   -0.0009180040
   0.0000419579   -0.0000110903   -0.0007517724
   0.0012566497   -0.0012258876    0.0006341350
   0.0002334491   -0.0002026591    0.0000039802
  -0.0001667411    0.0001976405   -0.0004633946
  -0.0006152483   -0.0014107942   -0.0005662798
   0.0001411798    0.0001913752   -0.0000545701
  -0.0001606076   -0.0001103347   -0.0000545875
   0.0014417176    0.0006459982   -0.0005662475
   0.0018777939   -0.0051217874    0.0009725999
   0.0006247297    0.0004158134   -0.0010038827
  -0.0004257687    0.0002215718   -0.0001554444
   0.0005689047   -0.0005256796   -0.0000188553
   0.0004611811   -0.0004797813   -0.0002632571
  -0.0006874332   -0.0025615082    0.0009564972
   0.0003196303   -0.0002687794   -0.0000186039
  -0.0003888485    0.0002527621   -0.0001850662
  -0.0002531819    0.0004567435   -0.0001554658
   0.0004940079   -0.0005379440   -0.0000188659
   0.0050903059   -0.0018469676    0.0009726232
  -0.0004474441   -0.0005938817   -0.0010039194
   0.0025298009    0.0007183549    0.0009564857
   0.0004482292   -0.0004303849   -0.0002632660
  -0.0002844526    0.0004198283   -0.0001850625
   0.0002371858   -0.0002888649   -0.0000186253

49   
  0.0049016684936120   0.0049016684936120  -0.0072074469791642
  -0.0010239214    0.0045595434   -0.0064685336
  -0.0001169534    0.0001852543    0.0001135576
   0.0025235182    0.0001248064    0.0009385211
   0.0000187422    0.0000658394    0.0002242093
  -0.0015014489   -0.0003367963    0.0009675196
   0.0000697163   -0.0008445162   -0.0007440069
  -0.0015349249    0.0001266808    0.0005446754
  -0.0000340591   -0.0006295523   -0.0009821261
  -0.0000145872    0.0026243956    0.0009159219
   0.0044661363   -0.0008595088   -0.0062625789
   0.0000578202   -0.0000158882    0.0002290010
   0.0001796591   -0.0000722081    0.0001055555
   0.0000776516   -0.0014982595    0.0005437532
  -0.0002028807   -0.0015624768    0.0009650943
  -0.0005918271   -0.0001598507   -0.0009839156
  -0.0008302427    0.0000640360   -0.0007492626
   0.0003936513    0.0007775727   -0.0023979227
  -0.0032412863    0.0044832170   -0.0003591044
   0.0020477307   -0.0036249936    0.0001471476
  -0.0006233581   -0.0007748112    0.0075176936
  -0.0034602894   -0.0024909259    0.0003533824
   0.0003590563   -0.0007269597    0.0002127464
  -0.0004244591    0.0009097744   -0.0000000449
   0.0173728259    0.0117293136   -0.0020591243
   0.0110563702    0.0162356518   -0.0022968072
  -0.0007326063    0.0002952692    0.0002160822
   0.0008880428   -0.0004042361    0.0000002493
  -0.0024938354   -0.0034574480    0.0003467184
  -0.0007727158   -0.0006047353    0.0075724818
   0.0044962716   -0.0032208576   -0.0003590996
  -0.0036232636    0.0020632677    0.0001481437
   0.0007780140    0.0003681475   -0.0023746167
   0.0042090591    0.0063485649   -0.0121821104
  -0.0001434652    0.0001743102    0.0001153388
  -0.0001093650   -0.0001776804    0.0003375066
   0.0001541579    0.0001419947    0.0005400899
   0.0064305521    0.0042596159   -0.0123194201
  -0.0001768409   -0.0001154510    0.0003338006
   0.0001730139   -0.0001432229    0.0001148592
   0.0001443318    0.0001554468    0.0005380706
  -0.0006400749   -0.0004822808    0.0043536899
   0.0005504738   -0.0002846709   -0.0001950948
  -0.0002975750    0.0003138694   -0.0002175127
   0.0003252834    0.0005142401   -0.0014293807
   0.0005145089    0.0003230858   -0.0014358561
  -0.0002852997    0.0005496350   -0.0001938555
   0.0003140222   -0.0002987713   -0.0002155849
  -0.0005145001   -0.0006643768    0.0043231134
  -0.0644534076   -0.0643009929    0.0250443247
  -0.0000762692   -0.0005133233   -0.0002219949
  -0.0004397036   -0.0001494866   -0.0002230399
   0.0014670086    0.0013940079   -0.0001435031
   0.0024797311    0.0024088070   -0.0024741479
   0.0004021967    0.0022282191    0.0000773908
   0.0023012899    0.0003274499    0.0000786845
   0.0001962898    0.0001205406    0.0006439882
  -0.0008975862   -0.0010356815   -0.0006068757
  -0.0004441851   -0.0003872886    0.0006350703
  -0.0004587200   -0.0003845062    0.0000026760
  -0.0010939065   -0.0008096954   -0.0006092814
   0.0070363758    0.0092200429   -0.0005541411
   0.0004032699    0.0004770594   -0.0002618419
   0.0000997736    0.0001711187    0.0001524953
   0.0091748977    0.0071300366   -0.0005772163
  -0.0045995307    0.0063671150    0.0009560110
   0.0006464307   -0.0003438539   -0.0008731876
  -0.0004044252   -0.0005499958   -0.0002918183
   0.0013830432   -0.0009073255   -0.0000179439
   0.0007827782   -0.0006875233   -0.0007644423
  -0.0020444938    0.0089531800    0.0009702733
   0.0016427743   -0.0006497338   -0.0000193905
  -0.0000741978    0.0000548877    0.0003146035
  -0.0002817099    0.0007245089   -0.0008716071
  -0.0008305818    0.0014539359   -0.0000189204
   0.0064242301   -0.0045345129    0.0009720364
  -0.0004747612   -0.0003356330   -0.0002963260
   0.0089799159   -0.0019548554    0.0009499783
   0.0001248989    0.0000014580    0.0003164822
  -0.0006031449    0.0008488397   -0.0007624421
  -0.0005791107    0.0017201462   -0.0000188587
