  10   80
1 1
     2.343885671229676    -0.000000000000000     0.000000000000000
     0.000000000000000     2.343885671229677     0.000000000000002
    -0.000000000000000    -0.000000000000000     4.424119961535380
1 2
    -0.021552180014036     0.061293992708937     0.079578401106993
     0.061293992708937    -0.021552180014036    -0.079578401106993
     0.078847676728538    -0.078847676728538    -0.145182276900276
1 3
    -0.021552180014036     0.061293992708937    -0.079578401106993
     0.061293992708937    -0.021552180014036     0.079578401106993
    -0.078847676728538     0.078847676728538    -0.145182276900276
1 4
    -0.001020337773007    -0.000000000000000    -0.000000000000000
    -0.000000000000000    -0.001020337773007     0.000000000000000
     0.000000000000000    -0.000000000000000     0.020819402542762
1 5
    -0.021552180014036    -0.061293992708937     0.079578401106993
    -0.061293992708937    -0.021552180014036     0.079578401106993
     0.078847676728538     0.078847676728538    -0.145182276900276
1 6
    -0.010144274391700     0.000000000000000    -0.000000000000000
    -0.000000000000000    -0.280260482402011    -0.000000000000000
     0.000000000000000     0.000000000000000     0.054313548864424
1 7
    -0.280260482402011    -0.000000000000000    -0.000000000000000
    -0.000000000000000    -0.010144274391700     0.000000000000000
     0.000000000000000     0.000000000000000     0.054313548864424
1 8
    -0.021552180014036    -0.061293992708937    -0.079578401106993
    -0.061293992708937    -0.021552180014036    -0.079578401106993
    -0.078847676728538    -0.078847676728538    -0.145182276900276
1 9
    -0.095518440920809     0.215838669508085    -0.004326765368576
     0.215838669508085    -0.095518440920809     0.004326765368576
    -0.004128872748338     0.004128872748338     0.130043948237366
1 10
     0.090372650233627    -0.050732184827311     0.000000000000000
    -0.050732184827311     0.090372650233627    -0.000000000000000
     0.000000000000000    -0.000000000000000    -0.253690851509851
1 11
     0.090372650233627     0.050732184827311     0.000000000000000
     0.050732184827311     0.090372650233627    -0.000000000000000
    -0.000000000000000    -0.000000000000000    -0.253690851509851
1 12
    -0.095518440920809     0.215838669508085     0.004326765368576
     0.215838669508085    -0.095518440920809    -0.004326765368576
     0.004128872748338    -0.004128872748338     0.130043948237366
1 13
    -0.042941206356712     0.000348393574480    -0.000000000000000
    -0.000348393574480    -0.042941206356712    -0.000000000000000
    -0.000000000000000     0.000000000000000    -0.058050598078270
1 14
    -0.095518440920809    -0.215838669508085     0.004326765368576
    -0.215838669508085    -0.095518440920809     0.004326765368576
     0.004128872748338     0.004128872748338     0.130043948237366
1 15
    -0.095518440920809    -0.215838669508085    -0.004326765368576
    -0.215838669508085    -0.095518440920809    -0.004326765368576
    -0.004128872748338    -0.004128872748338     0.130043948237366
1 16
    -0.042941206356712    -0.000348393574480    -0.000000000000000
     0.000348393574480    -0.042941206356712    -0.000000000000000
     0.000000000000000     0.000000000000000    -0.058050598078270
1 17
     0.382237387588357    -0.183847452537190     0.041136826875377
    -0.033256854316701    -0.351311541818893    -0.635164238937743
     0.054326513442973    -0.705645043667076     0.057232979467279
1 18
    -0.351311541818892     0.033256854316701     0.635164238937743
     0.183847452537190     0.382237387588358     0.041136826875377
     0.705645043667076     0.054326513442973     0.057232979467279
1 19
     0.002733958574119     0.000036355838705    -0.077482585015254
    -0.023311701664487    -0.142182801581729    -0.027304798675979
    -0.081930179403981     0.006935561915354    -0.088389742245146
1 20
    -0.142182801581729     0.023311701664487    -0.027304798675979
    -0.000036355838705     0.002733958574119     0.077482585015254
     0.006935561915354     0.081930179403981    -0.088389742245146
1 21
     0.002733958574119     0.000036355838705     0.077482585015254
    -0.023311701664487    -0.142182801581729     0.027304798675979
     0.081930179403981    -0.006935561915354    -0.088389742245146
1 22
     0.382237387588357    -0.183847452537190    -0.041136826875377
    -0.033256854316701    -0.351311541818892     0.635164238937743
    -0.054326513442973     0.705645043667076     0.057232979467279
1 23
    -0.142182801581729     0.023311701664487     0.027304798675979
    -0.000036355838705     0.002733958574119    -0.077482585015254
    -0.006935561915354    -0.081930179403981    -0.088389742245146
1 24
    -0.351311541818892     0.033256854316701    -0.635164238937743
     0.183847452537190     0.382237387588358    -0.041136826875377
    -0.705645043667076    -0.054326513442973     0.057232979467279
1 25
     0.382237387588357     0.183847452537190     0.041136826875377
     0.033256854316701    -0.351311541818892     0.635164238937743
     0.054326513442973     0.705645043667076     0.057232979467279
1 26
     0.002733958574119    -0.000036355838705     0.077482585015254
     0.023311701664487    -0.142182801581729    -0.027304798675979
     0.081930179403981     0.006935561915354    -0.088389742245146
1 27
    -0.351311541818892    -0.033256854316701    -0.635164238937743
    -0.183847452537190     0.382237387588357     0.041136826875377
    -0.705645043667076     0.054326513442973     0.057232979467279
1 28
    -0.142182801581729    -0.023311701664487    -0.027304798675979
     0.000036355838705     0.002733958574119    -0.077482585015254
     0.006935561915354    -0.081930179403981    -0.088389742245146
1 29
    -0.351311541818892    -0.033256854316701     0.635164238937743
    -0.183847452537190     0.382237387588357    -0.041136826875376
     0.705645043667076    -0.054326513442973     0.057232979467279
1 30
     0.382237387588357     0.183847452537190    -0.041136826875377
     0.033256854316701    -0.351311541818893    -0.635164238937743
    -0.054326513442973    -0.705645043667076     0.057232979467279
1 31
    -0.142182801581729    -0.023311701664487     0.027304798675979
     0.000036355838705     0.002733958574119     0.077482585015254
    -0.006935561915354     0.081930179403981    -0.088389742245146
1 32
     0.002733958574119    -0.000036355838705    -0.077482585015254
     0.023311701664487    -0.142182801581729     0.027304798675979
    -0.081930179403981    -0.006935561915354    -0.088389742245146
1 33
    -0.027986019349504    -0.027633702380439     0.042308429186124
    -0.003797093885422     0.016458307076976    -0.128484161385694
    -0.008818860345312    -0.054461300173086     0.138385247527611
1 34
    -0.002155725896834    -0.000000000000000    -0.000000000000000
     0.000000000000000     0.032433865403680     0.004055024328856
    -0.000000000000000     0.001549679970697    -0.016237850319519
1 35
     0.054224339487410     0.000000000000000    -0.000000000000000
    -0.000000000000000    -0.139637055956464    -0.099936089015958
    -0.000000000000000    -0.009777856402212    -0.424857545755645
1 36
    -0.027986019349504     0.027633702380439     0.042308429186124
     0.003797093885422     0.016458307076976     0.128484161385694
    -0.008818860345312     0.054461300173086     0.138385247527611
1 37
     0.054224339487410     0.000000000000000     0.000000000000000
     0.000000000000000    -0.139637055956464     0.099936089015958
    -0.000000000000000     0.009777856402212    -0.424857545755645
1 38
    -0.027986019349504    -0.027633702380439    -0.042308429186124
    -0.003797093885422     0.016458307076976     0.128484161385694
     0.008818860345312     0.054461300173086     0.138385247527611
1 39
    -0.027986019349504     0.027633702380439    -0.042308429186124
     0.003797093885422     0.016458307076976    -0.128484161385694
     0.008818860345312    -0.054461300173086     0.138385247527611
1 40
    -0.002155725896834    -0.000000000000000     0.000000000000000
     0.000000000000000     0.032433865403680    -0.004055024328856
    -0.000000000000000    -0.001549679970697    -0.016237850319519
1 41
    -0.139637055956464    -0.000000000000000    -0.099936089015958
    -0.000000000000000     0.054224339487410    -0.000000000000000
    -0.009777856402212    -0.000000000000000    -0.424857545755645
1 42
     0.016458307076976    -0.003797093885422    -0.128484161385694
    -0.027633702380439    -0.027986019349504     0.042308429186124
    -0.054461300173086    -0.008818860345312     0.138385247527611
1 43
     0.016458307076976     0.003797093885422     0.128484161385694
     0.027633702380439    -0.027986019349504     0.042308429186124
     0.054461300173086    -0.008818860345312     0.138385247527611
1 44
     0.032433865403680     0.000000000000000     0.004055024328856
     0.000000000000000    -0.002155725896834    -0.000000000000000
     0.001549679970697     0.000000000000000    -0.016237850319519
1 45
     0.016458307076976     0.003797093885422    -0.128484161385694
     0.027633702380439    -0.027986019349504    -0.042308429186124
    -0.054461300173086     0.008818860345312     0.138385247527611
1 46
    -0.139637055956464    -0.000000000000000     0.099936089015958
    -0.000000000000000     0.054224339487410    -0.000000000000000
     0.009777856402212     0.000000000000000    -0.424857545755645
1 47
     0.032433865403680     0.000000000000000    -0.004055024328856
     0.000000000000000    -0.002155725896834    -0.000000000000000
    -0.001549679970697     0.000000000000000    -0.016237850319519
1 48
     0.016458307076976    -0.003797093885422     0.128484161385694
    -0.027633702380439    -0.027986019349504    -0.042308429186124
     0.054461300173086     0.008818860345312     0.138385247527611
1 49
    -0.426444842899238     0.052792489493080    -0.380922160391048
     0.052792489493080    -0.426444842899238     0.380922160391048
    -0.353698071241398     0.353698071241398    -0.880944868242097
1 50
     0.010912562906274    -0.018216780359809    -0.019581452688603
    -0.018216780359809     0.010912562906274     0.019581452688603
    -0.016024097574296     0.016024097574296     0.015477200180435
1 51
    -0.075708865263538    -0.183557222283131     0.170313646090614
    -0.183557222283131    -0.075708865263538    -0.170313646090614
     0.141660410346893    -0.141660410346893     0.127956146686610
1 52
    -0.000951874759895    -0.007429102732205    -0.004099693443561
    -0.007429102732205    -0.000951874759895     0.004099693443561
    -0.018933653689910     0.018933653689910     0.031122207665332
1 53
     0.099728936364898     0.112072951466661    -0.060743140932902
     0.036837644518310    -0.009169635740663    -0.012211779424807
    -0.109913699670260    -0.088762626594164    -0.002334584159935
1 54
    -0.014119972795407    -0.006285199336979     0.000423907234019
     0.095798573407667     0.143611445009992     0.047694307959464
     0.052255300380976     0.079480150463746    -0.014842826694755
1 55
     0.143611445009992     0.095798573407667    -0.047694307959464
    -0.006285199336979    -0.014119972795407    -0.000423907234019
    -0.079480150463747    -0.052255300380976    -0.014842826694755
1 56
    -0.009169635740663     0.036837644518310     0.012211779424807
     0.112072951466661     0.099728936364898     0.060743140932902
     0.088762626594164     0.109913699670260    -0.002334584159935
1 57
    -0.075708865263538    -0.183557222283131    -0.170313646090614
    -0.183557222283131    -0.075708865263538     0.170313646090614
    -0.141660410346893     0.141660410346893     0.127956146686610
1 58
    -0.426444842899238     0.052792489493080     0.380922160391048
     0.052792489493080    -0.426444842899238    -0.380922160391048
     0.353698071241397    -0.353698071241397    -0.880944868242097
1 59
    -0.000951874759895    -0.007429102732205     0.004099693443561
    -0.007429102732205    -0.000951874759895    -0.004099693443561
     0.018933653689910    -0.018933653689910     0.031122207665332
1 60
     0.010912562906274    -0.018216780359809     0.019581452688603
    -0.018216780359809     0.010912562906274    -0.019581452688603
     0.016024097574296    -0.016024097574296     0.015477200180435
1 61
    -0.014119972795407    -0.006285199336979    -0.000423907234019
     0.095798573407667     0.143611445009992    -0.047694307959464
    -0.052255300380976    -0.079480150463747    -0.014842826694755
1 62
    -0.009169635740663     0.036837644518310    -0.012211779424807
     0.112072951466661     0.099728936364898    -0.060743140932902
    -0.088762626594164    -0.109913699670260    -0.002334584159935
1 63
     0.099728936364898     0.112072951466661     0.060743140932902
     0.036837644518311    -0.009169635740663     0.012211779424807
     0.109913699670260     0.088762626594164    -0.002334584159935
1 64
     0.143611445009992     0.095798573407667     0.047694307959464
    -0.006285199336979    -0.014119972795407     0.000423907234019
     0.079480150463747     0.052255300380976    -0.014842826694755
1 65
    -0.009169635740663    -0.036837644518310     0.012211779424807
    -0.112072951466661     0.099728936364898    -0.060743140932902
     0.088762626594164    -0.109913699670260    -0.002334584159935
1 66
    -0.000951874759895     0.007429102732205    -0.004099693443561
     0.007429102732205    -0.000951874759895    -0.004099693443561
    -0.018933653689910    -0.018933653689910     0.031122207665332
1 67
    -0.426444842899238    -0.052792489493080    -0.380922160391048
    -0.052792489493080    -0.426444842899239    -0.380922160391048
    -0.353698071241398    -0.353698071241398    -0.880944868242097
1 68
     0.099728936364898    -0.112072951466661    -0.060743140932902
    -0.036837644518311    -0.009169635740663     0.012211779424807
    -0.109913699670260     0.088762626594164    -0.002334584159935
1 69
     0.143611445009992    -0.095798573407667    -0.047694307959464
     0.006285199336979    -0.014119972795407     0.000423907234019
    -0.079480150463747     0.052255300380976    -0.014842826694755
1 70
    -0.075708865263538     0.183557222283131     0.170313646090614
     0.183557222283131    -0.075708865263538     0.170313646090614
     0.141660410346893     0.141660410346893     0.127956146686610
1 71
     0.010912562906274     0.018216780359809    -0.019581452688603
     0.018216780359809     0.010912562906274    -0.019581452688603
    -0.016024097574296    -0.016024097574296     0.015477200180435
1 72
    -0.014119972795407     0.006285199336979     0.000423907234019
    -0.095798573407667     0.143611445009992    -0.047694307959464
     0.052255300380976    -0.079480150463747    -0.014842826694755
1 73
    -0.426444842899238    -0.052792489493080     0.380922160391048
    -0.052792489493080    -0.426444842899238     0.380922160391048
     0.353698071241398     0.353698071241398    -0.880944868242098
1 74
    -0.009169635740663    -0.036837644518311    -0.012211779424807
    -0.112072951466661     0.099728936364898     0.060743140932902
    -0.088762626594164     0.109913699670260    -0.002334584159935
1 75
     0.099728936364898    -0.112072951466661     0.060743140932902
    -0.036837644518310    -0.009169635740663    -0.012211779424807
     0.109913699670260    -0.088762626594164    -0.002334584159935
1 76
    -0.000951874759895     0.007429102732205     0.004099693443561
     0.007429102732205    -0.000951874759895     0.004099693443561
     0.018933653689910     0.018933653689910     0.031122207665332
1 77
    -0.075708865263538     0.183557222283131    -0.170313646090614
     0.183557222283131    -0.075708865263538    -0.170313646090614
    -0.141660410346893    -0.141660410346893     0.127956146686610
1 78
    -0.014119972795407     0.006285199336979    -0.000423907234019
    -0.095798573407667     0.143611445009992     0.047694307959464
    -0.052255300380976     0.079480150463746    -0.014842826694755
1 79
     0.143611445009992    -0.095798573407667     0.047694307959464
     0.006285199336979    -0.014119972795407    -0.000423907234019
     0.079480150463747    -0.052255300380976    -0.014842826694755
1 80
     0.010912562906274     0.018216780359809     0.019581452688603
     0.018216780359809     0.010912562906274     0.019581452688603
     0.016024097574296     0.016024097574296     0.015477200180435
9 1
    -0.095518440920809     0.215838669508085    -0.004326765368576
     0.215838669508085    -0.095518440920809     0.004326765368576
    -0.004128872748338     0.004128872748338     0.130043948237366
9 2
     0.090372650233627    -0.050732184827311    -0.000000000000000
    -0.050732184827311     0.090372650233627     0.000000000000000
    -0.000000000000000     0.000000000000000    -0.253690851509851
9 3
     0.090372650233627     0.050732184827311    -0.000000000000000
     0.050732184827311     0.090372650233627     0.000000000000000
    -0.000000000000000     0.000000000000000    -0.253690851509851
9 4
    -0.095518440920809     0.215838669508085     0.004326765368576
     0.215838669508085    -0.095518440920809    -0.004326765368576
     0.004128872748338    -0.004128872748338     0.130043948237366
9 5
    -0.042941206356712     0.000348393574480    -0.000000000000000
    -0.000348393574480    -0.042941206356712     0.000000000000000
     0.000000000000000     0.000000000000000    -0.058050598078270
9 6
    -0.095518440920809    -0.215838669508085     0.004326765368576
    -0.215838669508085    -0.095518440920809     0.004326765368576
     0.004128872748338     0.004128872748338     0.130043948237366
9 7
    -0.095518440920809    -0.215838669508085    -0.004326765368576
    -0.215838669508085    -0.095518440920809    -0.004326765368576
    -0.004128872748338    -0.004128872748338     0.130043948237366
9 8
    -0.042941206356712    -0.000348393574480    -0.000000000000000
     0.000348393574480    -0.042941206356712     0.000000000000000
     0.000000000000000     0.000000000000000    -0.058050598078270
9 9
     2.343885671229677    -0.000000000000000     0.000000000000002
    -0.000000000000000     2.343885671229676    -0.000000000000001
    -0.000000000000000    -0.000000000000000     4.424119961535379
9 10
    -0.021552180014036     0.061293992708937     0.079578401106993
     0.061293992708937    -0.021552180014036    -0.079578401106993
     0.078847676728538    -0.078847676728538    -0.145182276900276
9 11
    -0.021552180014036     0.061293992708937    -0.079578401106993
     0.061293992708937    -0.021552180014036     0.079578401106993
    -0.078847676728538     0.078847676728538    -0.145182276900276
9 12
    -0.001020337773007     0.000000000000000     0.000000000000000
     0.000000000000000    -0.001020337773007     0.000000000000000
     0.000000000000000    -0.000000000000000     0.020819402542762
9 13
    -0.021552180014036    -0.061293992708937     0.079578401106993
    -0.061293992708937    -0.021552180014036     0.079578401106993
     0.078847676728538     0.078847676728538    -0.145182276900276
9 14
    -0.010144274391700     0.000000000000000     0.000000000000000
     0.000000000000000    -0.280260482402011     0.000000000000000
     0.000000000000000     0.000000000000000     0.054313548864424
9 15
    -0.280260482402011     0.000000000000000     0.000000000000000
     0.000000000000000    -0.010144274391700     0.000000000000000
     0.000000000000000    -0.000000000000000     0.054313548864424
9 16
    -0.021552180014036    -0.061293992708937    -0.079578401106993
    -0.061293992708937    -0.021552180014036    -0.079578401106993
    -0.078847676728538    -0.078847676728538    -0.145182276900276
9 17
    -0.351311541818893     0.033256854316701    -0.635164238937743
     0.183847452537190     0.382237387588357    -0.041136826875377
    -0.705645043667076    -0.054326513442973     0.057232979467279
9 18
    -0.142182801581729     0.023311701664487     0.027304798675979
    -0.000036355838705     0.002733958574119    -0.077482585015254
    -0.006935561915354    -0.081930179403981    -0.088389742245146
9 19
     0.382237387588358    -0.183847452537190    -0.041136826875377
    -0.033256854316701    -0.351311541818892     0.635164238937743
    -0.054326513442974     0.705645043667076     0.057232979467279
9 20
     0.002733958574119     0.000036355838705     0.077482585015254
    -0.023311701664487    -0.142182801581729     0.027304798675979
     0.081930179403981    -0.006935561915354    -0.088389742245146
9 21
    -0.142182801581729     0.023311701664487    -0.027304798675979
    -0.000036355838705     0.002733958574119     0.077482585015254
     0.006935561915354     0.081930179403981    -0.088389742245146
9 22
     0.002733958574119     0.000036355838705    -0.077482585015254
    -0.023311701664487    -0.142182801581729    -0.027304798675979
    -0.081930179403981     0.006935561915354    -0.088389742245146
9 23
    -0.351311541818892     0.033256854316701     0.635164238937743
     0.183847452537190     0.382237387588357     0.041136826875376
     0.705645043667076     0.054326513442973     0.057232979467279
9 24
     0.382237387588358    -0.183847452537190     0.041136826875377
    -0.033256854316701    -0.351311541818892    -0.635164238937743
     0.054326513442973    -0.705645043667076     0.057232979467279
9 25
    -0.351311541818892    -0.033256854316701     0.635164238937743
    -0.183847452537190     0.382237387588357    -0.041136826875377
     0.705645043667076    -0.054326513442973     0.057232979467279
9 26
     0.382237387588357     0.183847452537190    -0.041136826875376
     0.033256854316701    -0.351311541818892    -0.635164238937743
    -0.054326513442973    -0.705645043667076     0.057232979467279
9 27
    -0.142182801581729    -0.023311701664487     0.027304798675979
     0.000036355838705     0.002733958574119     0.077482585015254
    -0.006935561915354     0.081930179403981    -0.088389742245146
9 28
     0.002733958574119    -0.000036355838705    -0.077482585015254
     0.023311701664487    -0.142182801581729     0.027304798675979
    -0.081930179403981    -0.006935561915354    -0.088389742245146
9 29
     0.382237387588357     0.183847452537190     0.041136826875376
     0.033256854316701    -0.351311541818892     0.635164238937743
     0.054326513442973     0.705645043667076     0.057232979467279
9 30
     0.002733958574119    -0.000036355838705     0.077482585015254
     0.023311701664487    -0.142182801581729    -0.027304798675979
     0.081930179403981     0.006935561915354    -0.088389742245146
9 31
    -0.351311541818893    -0.033256854316701    -0.635164238937743
    -0.183847452537190     0.382237387588357     0.041136826875377
    -0.705645043667076     0.054326513442973     0.057232979467279
9 32
    -0.142182801581729    -0.023311701664487    -0.027304798675979
     0.000036355838705     0.002733958574119    -0.077482585015254
     0.006935561915354    -0.081930179403981    -0.088389742245146
9 33
     0.016458307076976     0.003797093885422    -0.128484161385694
     0.027633702380439    -0.027986019349504    -0.042308429186124
    -0.054461300173086     0.008818860345312     0.138385247527611
9 34
    -0.139637055956464    -0.000000000000000     0.099936089015958
    -0.000000000000000     0.054224339487410     0.000000000000000
     0.009777856402212     0.000000000000000    -0.424857545755645
9 35
     0.032433865403680    -0.000000000000000    -0.004055024328856
    -0.000000000000000    -0.002155725896834     0.000000000000000
    -0.001549679970697     0.000000000000000    -0.016237850319519
9 36
     0.016458307076976    -0.003797093885422     0.128484161385694
    -0.027633702380439    -0.027986019349504    -0.042308429186124
     0.054461300173086     0.008818860345312     0.138385247527611
9 37
    -0.139637055956464     0.000000000000000    -0.099936089015958
     0.000000000000000     0.054224339487410     0.000000000000000
    -0.009777856402212     0.000000000000000    -0.424857545755644
9 38
     0.016458307076976    -0.003797093885422    -0.128484161385694
    -0.027633702380439    -0.027986019349504     0.042308429186124
    -0.054461300173086    -0.008818860345312     0.138385247527611
9 39
     0.016458307076976     0.003797093885422     0.128484161385694
     0.027633702380439    -0.027986019349504     0.042308429186124
     0.054461300173086    -0.008818860345312     0.138385247527611
9 40
     0.032433865403680    -0.000000000000000     0.004055024328856
    -0.000000000000000    -0.002155725896834     0.000000000000000
     0.001549679970697     0.000000000000000    -0.016237850319519
9 41
     0.054224339487410     0.000000000000000    -0.000000000000000
     0.000000000000000    -0.139637055956464     0.099936089015958
    -0.000000000000000     0.009777856402212    -0.424857545755645
9 42
    -0.027986019349504    -0.027633702380439    -0.042308429186124
    -0.003797093885422     0.016458307076976     0.128484161385694
     0.008818860345312     0.054461300173086     0.138385247527611
9 43
    -0.027986019349504     0.027633702380439    -0.042308429186124
     0.003797093885422     0.016458307076976    -0.128484161385694
     0.008818860345312    -0.054461300173086     0.138385247527611
9 44
    -0.002155725896834    -0.000000000000000    -0.000000000000000
    -0.000000000000000     0.032433865403680    -0.004055024328856
    -0.000000000000000    -0.001549679970697    -0.016237850319519
9 45
    -0.027986019349504    -0.027633702380439     0.042308429186124
    -0.003797093885422     0.016458307076976    -0.128484161385694
    -0.008818860345312    -0.054461300173086     0.138385247527611
9 46
    -0.002155725896834    -0.000000000000000    -0.000000000000000
    -0.000000000000000     0.032433865403680     0.004055024328856
    -0.000000000000000     0.001549679970697    -0.016237850319519
9 47
     0.054224339487410     0.000000000000000    -0.000000000000000
     0.000000000000000    -0.139637055956464    -0.099936089015958
    -0.000000000000000    -0.009777856402212    -0.424857545755645
9 48
    -0.027986019349504     0.027633702380439     0.042308429186124
     0.003797093885422     0.016458307076976     0.128484161385694
    -0.008818860345312     0.054461300173086     0.138385247527611
9 49
    -0.075708865263538    -0.183557222283131    -0.170313646090614
    -0.183557222283131    -0.075708865263538     0.170313646090614
    -0.141660410346892     0.141660410346893     0.127956146686610
9 50
    -0.426444842899238     0.052792489493080     0.380922160391048
     0.052792489493080    -0.426444842899238    -0.380922160391048
     0.353698071241397    -0.353698071241397    -0.880944868242097
9 51
    -0.000951874759895    -0.007429102732205     0.004099693443561
    -0.007429102732205    -0.000951874759895    -0.004099693443561
     0.018933653689910    -0.018933653689910     0.031122207665332
9 52
     0.010912562906274    -0.018216780359809     0.019581452688603
    -0.018216780359809     0.010912562906274    -0.019581452688603
     0.016024097574296    -0.016024097574296     0.015477200180435
9 53
    -0.014119972795407    -0.006285199336979    -0.000423907234019
     0.095798573407667     0.143611445009992    -0.047694307959464
    -0.052255300380976    -0.079480150463747    -0.014842826694755
9 54
    -0.009169635740663     0.036837644518310    -0.012211779424807
     0.112072951466661     0.099728936364898    -0.060743140932902
    -0.088762626594164    -0.109913699670260    -0.002334584159935
9 55
     0.099728936364898     0.112072951466661     0.060743140932902
     0.036837644518310    -0.009169635740663     0.012211779424807
     0.109913699670260     0.088762626594164    -0.002334584159935
9 56
     0.143611445009992     0.095798573407667     0.047694307959464
    -0.006285199336979    -0.014119972795407     0.000423907234019
     0.079480150463746     0.052255300380976    -0.014842826694755
9 57
    -0.426444842899239     0.052792489493080    -0.380922160391048
     0.052792489493080    -0.426444842899238     0.380922160391048
    -0.353698071241398     0.353698071241398    -0.880944868242097
9 58
     0.010912562906274    -0.018216780359809    -0.019581452688603
    -0.018216780359809     0.010912562906274     0.019581452688603
    -0.016024097574296     0.016024097574296     0.015477200180435
9 59
    -0.075708865263538    -0.183557222283131     0.170313646090614
    -0.183557222283131    -0.075708865263538    -0.170313646090614
     0.141660410346893    -0.141660410346892     0.127956146686610
9 60
    -0.000951874759895    -0.007429102732205    -0.004099693443561
    -0.007429102732205    -0.000951874759895     0.004099693443561
    -0.018933653689910     0.018933653689910     0.031122207665332
9 61
     0.099728936364898     0.112072951466661    -0.060743140932902
     0.036837644518310    -0.009169635740663    -0.012211779424807
    -0.109913699670260    -0.088762626594164    -0.002334584159935
9 62
    -0.014119972795407    -0.006285199336979     0.000423907234019
     0.095798573407667     0.143611445009992     0.047694307959464
     0.052255300380976     0.079480150463747    -0.014842826694755
9 63
     0.143611445009992     0.095798573407667    -0.047694307959464
    -0.006285199336979    -0.014119972795407    -0.000423907234019
    -0.079480150463747    -0.052255300380976    -0.014842826694755
9 64
    -0.009169635740663     0.036837644518311     0.012211779424807
     0.112072951466661     0.099728936364898     0.060743140932902
     0.088762626594164     0.109913699670260    -0.002334584159935
9 65
    -0.426444842899238    -0.052792489493080     0.380922160391048
    -0.052792489493080    -0.426444842899238     0.380922160391048
     0.353698071241397     0.353698071241398    -0.880944868242097
9 66
    -0.009169635740663    -0.036837644518310    -0.012211779424807