------------------------------------------------------------
          Invoking FHI-aims ...

          When using FHI-aims, please cite the following reference:

            Volker Blum, Ralf Gehrke, Felix Hanke, Paula Havu,
            Ville Havu, Xinguo Ren, Karsten Reuter, and Matthias Scheffler,
            'Ab Initio Molecular Simulations with Numeric Atom-Centered Orbitals',
            Computer Physics Communications 180, 2175-2196 (2009)

          In addition, many other developments in FHI-aims are likely important for
          your particular application. A partial list of references is given at the end of
          this file. Thank you for giving credit to the authors of these developments.

          For any questions about FHI-aims, please visit our slack channel at

            https://fhi-aims.slack.com

          and our main development and support site at

            https://aims-git.rz-berlin.mpg.de .

          The latter site, in particular, has a wiki to collect information, as well
          as an issue tracker to log discussions, suggest improvements, and report issues
          or bugs. https://aims-git.rz-berlin.mpg.de is also the main development site
          of the project and all new and updated code versions can be obtained there.
          Please send an email to aims-coordinators@fhi-berlin.mpg.de and we will add
          you to these sites. They are for you and everyone is welcome there.

------------------------------------------------------------



  Date     :  20240430, Time     :  035459.083
  Time zero on CPU 1             :   0.780763000000000E+00  s.
  Internal wall clock time zero  :           483681299.083  s.

  FHI-aims created a unique identifier for this run for later identification
  aims_uuid : C79A2707-FBBD-44DD-A089-18E79723E465

  Build configuration of the current instance of FHI-aims
  -------------------------------------------------------
  FHI-aims version      : 220619
  Commit number         : 375d76c9a
  CMake host system     : Linux-5.14.21-150400.24.46_12.0.70-cray_shasta_c
  CMake version         : 3.22.1
  Fortran compiler      : /opt/cray/pe/craype/2.7.19/bin/ftn (GNU) version 11.2.0
  Fortran compiler flags: -O2 -fallow-argument-mismatch -ffree-line-length-none
  C compiler            : /home/e05/e05/prakaya/miniconda3/bin/cc (GNU) version 10.4.0
  C compiler flags      : -O2
  Using MPI
  Using ScaLAPACK
  Using LibXC
  Using i-PI
  Using RLSY
  Linking against:

  Using     1024 parallel tasks.
  Task        0 on host nid001028 reporting.
  Task        1 on host nid001028 reporting.
  Task        2 on host nid001028 reporting.
  Task        3 on host nid001028 reporting.
  Task        4 on host nid001028 reporting.
  Task        5 on host nid001028 reporting.
  Task        6 on host nid001028 reporting.
  Task        7 on host nid001028 reporting.
  Task        8 on host nid001028 reporting.
  Task        9 on host nid001028 reporting.
  Task       10 on host nid001028 reporting.
  Task       11 on host nid001028 reporting.
  Task       12 on host nid001028 reporting.
  Task       13 on host nid001028 reporting.
  Task       14 on host nid001028 reporting.
  Task       15 on host nid001028 reporting.
  Task       16 on host nid001028 reporting.
  Task       17 on host nid001028 reporting.
  Task       18 on host nid001028 reporting.
  Task       19 on host nid001028 reporting.
  Task       20 on host nid001028 reporting.
  Task       21 on host nid001028 reporting.
  Task       22 on host nid001028 reporting.
  Task       23 on host nid001028 reporting.
  Task       24 on host nid001028 reporting.
  Task       25 on host nid001028 reporting.
  Task       26 on host nid001028 reporting.
  Task       27 on host nid001028 reporting.
  Task       28 on host nid001028 reporting.
  Task       29 on host nid001028 reporting.
  Task       30 on host nid001028 reporting.
  Task       31 on host nid001028 reporting.
  Task       32 on host nid001028 reporting.
  Task       33 on host nid001028 reporting.
  Task       34 on host nid001028 reporting.
  Task       35 on host nid001028 reporting.
  Task       36 on host nid001028 reporting.
  Task       37 on host nid001028 reporting.
  Task       38 on host nid001028 reporting.
  Task       39 on host nid001028 reporting.
  Task       40 on host nid001028 reporting.
  Task       41 on host nid001028 reporting.
  Task       42 on host nid001028 reporting.
  Task       43 on host nid001028 reporting.
  Task       44 on host nid001028 reporting.
  Task       45 on host nid001028 reporting.
  Task       46 on host nid001028 reporting.
  Task       47 on host nid001028 reporting.
  Task       48 on host nid001028 reporting.
  Task       49 on host nid001028 reporting.
  Task       50 on host nid001028 reporting.
  Task       51 on host nid001028 reporting.
  Task       52 on host nid001028 reporting.
  Task       53 on host nid001028 reporting.
  Task       54 on host nid001028 reporting.
  Task       55 on host nid001028 reporting.
  Task       56 on host nid001028 reporting.
  Task       57 on host nid001028 reporting.
  Task       58 on host nid001028 reporting.
  Task       59 on host nid001028 reporting.
  Task       60 on host nid001028 reporting.
  Task       61 on host nid001028 reporting.
  Task       62 on host nid001028 reporting.
  Task       63 on host nid001028 reporting.
  Task       64 on host nid001033 reporting.
  Task       65 on host nid001033 reporting.
  Task       66 on host nid001033 reporting.
  Task       67 on host nid001033 reporting.
  Task       68 on host nid001033 reporting.
  Task       69 on host nid001033 reporting.
  Task       70 on host nid001033 reporting.
  Task       71 on host nid001033 reporting.
  Task       72 on host nid001033 reporting.
  Task       73 on host nid001033 reporting.
  Task       74 on host nid001033 reporting.
  Task       75 on host nid001033 reporting.
  Task       76 on host nid001033 reporting.
  Task       77 on host nid001033 reporting.
  Task       78 on host nid001033 reporting.
  Task       79 on host nid001033 reporting.
  Task       80 on host nid001033 reporting.
  Task       81 on host nid001033 reporting.
  Task       82 on host nid001033 reporting.
  Task       83 on host nid001033 reporting.
  Task       84 on host nid001033 reporting.
  Task       85 on host nid001033 reporting.
  Task       86 on host nid001033 reporting.
  Task       87 on host nid001033 reporting.
  Task       88 on host nid001033 reporting.
  Task       89 on host nid001033 reporting.
  Task       90 on host nid001033 reporting.
  Task       91 on host nid001033 reporting.
  Task       92 on host nid001033 reporting.
  Task       93 on host nid001033 reporting.
  Task       94 on host nid001033 reporting.
  Task       95 on host nid001033 reporting.
  Task       96 on host nid001033 reporting.
  Task       97 on host nid001033 reporting.
  Task       98 on host nid001033 reporting.
  Task       99 on host nid001033 reporting.
  Task      100 on host nid001033 reporting.
  Task      101 on host nid001033 reporting.
  Task      102 on host nid001033 reporting.
  Task      103 on host nid001033 reporting.
  Task      104 on host nid001033 reporting.
  Task      105 on host nid001033 reporting.
  Task      106 on host nid001033 reporting.
  Task      107 on host nid001033 reporting.
  Task      108 on host nid001033 reporting.
  Task      109 on host nid001033 reporting.
  Task      110 on host nid001033 reporting.
  Task      111 on host nid001033 reporting.
  Task      112 on host nid001033 reporting.
  Task      113 on host nid001033 reporting.
  Task      114 on host nid001033 reporting.
  Task      115 on host nid001033 reporting.
  Task      116 on host nid001033 reporting.
  Task      117 on host nid001033 reporting.
  Task      118 on host nid001033 reporting.
  Task      119 on host nid001033 reporting.
  Task      120 on host nid001033 reporting.
  Task      121 on host nid001033 reporting.
  Task      122 on host nid001033 reporting.
  Task      123 on host nid001033 reporting.
  Task      124 on host nid001033 reporting.
  Task      125 on host nid001033 reporting.
  Task      126 on host nid001033 reporting.
  Task      127 on host nid001033 reporting.
  Task      128 on host nid001124 reporting.
  Task      129 on host nid001124 reporting.
  Task      130 on host nid001124 reporting.
  Task      131 on host nid001124 reporting.
  Task      132 on host nid001124 reporting.
  Task      133 on host nid001124 reporting.
  Task      134 on host nid001124 reporting.
  Task      135 on host nid001124 reporting.
  Task      136 on host nid001124 reporting.
  Task      137 on host nid001124 reporting.
  Task      138 on host nid001124 reporting.
  Task      139 on host nid001124 reporting.
  Task      140 on host nid001124 reporting.
  Task      141 on host nid001124 reporting.
  Task      142 on host nid001124 reporting.
  Task      143 on host nid001124 reporting.
  Task      144 on host nid001124 reporting.
  Task      145 on host nid001124 reporting.
  Task      146 on host nid001124 reporting.
  Task      147 on host nid001124 reporting.
  Task      148 on host nid001124 reporting.
  Task      149 on host nid001124 reporting.
  Task      150 on host nid001124 reporting.
  Task      151 on host nid001124 reporting.
  Task      152 on host nid001124 reporting.
  Task      153 on host nid001124 reporting.
  Task      154 on host nid001124 reporting.
  Task      155 on host nid001124 reporting.
  Task      156 on host nid001124 reporting.
  Task      157 on host nid001124 reporting.
  Task      158 on host nid001124 reporting.
  Task      159 on host nid001124 reporting.
  Task      160 on host nid001124 reporting.
  Task      161 on host nid001124 reporting.
  Task      162 on host nid001124 reporting.
  Task      163 on host nid001124 reporting.
  Task      164 on host nid001124 reporting.
  Task      165 on host nid001124 reporting.
  Task      166 on host nid001124 reporting.
  Task      167 on host nid001124 reporting.
  Task      168 on host nid001124 reporting.
  Task      169 on host nid001124 reporting.
  Task      170 on host nid001124 reporting.
  Task      171 on host nid001124 reporting.
  Task      172 on host nid001124 reporting.
  Task      173 on host nid001124 reporting.
  Task      174 on host nid001124 reporting.
  Task      175 on host nid001124 reporting.
  Task      176 on host nid001124 reporting.
  Task      177 on host nid001124 reporting.
  Task      178 on host nid001124 reporting.
  Task      179 on host nid001124 reporting.
  Task      180 on host nid001124 reporting.
  Task      181 on host nid001124 reporting.
  Task      182 on host nid001124 reporting.
  Task      183 on host nid001124 reporting.
  Task      184 on host nid001124 reporting.
  Task      185 on host nid001124 reporting.
  Task      186 on host nid001124 reporting.
  Task      187 on host nid001124 reporting.
  Task      188 on host nid001124 reporting.
  Task      189 on host nid001124 reporting.
  Task      190 on host nid001124 reporting.
  Task      191 on host nid001124 reporting.
  Task      192 on host nid001328 reporting.
  Task      193 on host nid001328 reporting.
  Task      194 on host nid001328 reporting.
  Task      195 on host nid001328 reporting.
  Task      196 on host nid001328 reporting.
  Task      197 on host nid001328 reporting.
  Task      198 on host nid001328 reporting.
  Task      199 on host nid001328 reporting.
  Task      200 on host nid001328 reporting.
  Task      201 on host nid001328 reporting.
  Task      202 on host nid001328 reporting.
  Task      203 on host nid001328 reporting.
  Task      204 on host nid001328 reporting.
  Task      205 on host nid001328 reporting.
  Task      206 on host nid001328 reporting.
  Task      207 on host nid001328 reporting.
  Task      208 on host nid001328 reporting.
  Task      209 on host nid001328 reporting.
  Task      210 on host nid001328 reporting.
  Task      211 on host nid001328 reporting.
  Task      212 on host nid001328 reporting.
  Task      213 on host nid001328 reporting.
  Task      214 on host nid001328 reporting.
  Task      215 on host nid001328 reporting.
  Task      216 on host nid001328 reporting.
  Task      217 on host nid001328 reporting.
  Task      218 on host nid001328 reporting.
  Task      219 on host nid001328 reporting.
  Task      220 on host nid001328 reporting.
  Task      221 on host nid001328 reporting.
  Task      222 on host nid001328 reporting.
  Task      223 on host nid001328 reporting.
  Task      224 on host nid001328 reporting.
  Task      225 on host nid001328 reporting.
  Task      226 on host nid001328 reporting.
  Task      227 on host nid001328 reporting.
  Task      228 on host nid001328 reporting.
  Task      229 on host nid001328 reporting.
  Task      230 on host nid001328 reporting.
  Task      231 on host nid001328 reporting.
  Task      232 on host nid001328 reporting.
  Task      233 on host nid001328 reporting.
  Task      234 on host nid001328 reporting.
  Task      235 on host nid001328 reporting.
  Task      236 on host nid001328 reporting.
  Task      237 on host nid001328 reporting.
  Task      238 on host nid001328 reporting.
  Task      239 on host nid001328 reporting.
  Task      240 on host nid001328 reporting.
  Task      241 on host nid001328 reporting.
  Task      242 on host nid001328 reporting.
  Task      243 on host nid001328 reporting.
  Task      244 on host nid001328 reporting.
  Task      245 on host nid001328 reporting.
  Task      246 on host nid001328 reporting.
  Task      247 on host nid001328 reporting.
  Task      248 on host nid001328 reporting.
  Task      249 on host nid001328 reporting.
  Task      250 on host nid001328 reporting.
  Task      251 on host nid001328 reporting.
  Task      252 on host nid001328 reporting.
  Task      253 on host nid001328 reporting.
  Task      254 on host nid001328 reporting.
  Task      255 on host nid001328 reporting.
  Task      256 on host nid001329 reporting.
  Task      257 on host nid001329 reporting.
  Task      258 on host nid001329 reporting.
  Task      259 on host nid001329 reporting.
  Task      260 on host nid001329 reporting.
  Task      261 on host nid001329 reporting.
  Task      262 on host nid001329 reporting.
  Task      263 on host nid001329 reporting.
  Task      264 on host nid001329 reporting.
  Task      265 on host nid001329 reporting.
  Task      266 on host nid001329 reporting.
  Task      267 on host nid001329 reporting.
  Task      268 on host nid001329 reporting.
  Task      269 on host nid001329 reporting.
  Task      270 on host nid001329 reporting.
  Task      271 on host nid001329 reporting.
  Task      272 on host nid001329 reporting.
  Task      273 on host nid001329 reporting.
  Task      274 on host nid001329 reporting.
  Task      275 on host nid001329 reporting.
  Task      276 on host nid001329 reporting.
  Task      277 on host nid001329 reporting.
  Task      278 on host nid001329 reporting.
  Task      279 on host nid001329 reporting.
  Task      280 on host nid001329 reporting.
  Task      281 on host nid001329 reporting.
  Task      282 on host nid001329 reporting.
  Task      283 on host nid001329 reporting.
  Task      284 on host nid001329 reporting.
  Task      285 on host nid001329 reporting.
  Task      286 on host nid001329 reporting.
  Task      287 on host nid001329 reporting.
  Task      288 on host nid001329 reporting.
  Task      289 on host nid001329 reporting.
  Task      290 on host nid001329 reporting.
  Task      291 on host nid001329 reporting.
  Task      292 on host nid001329 reporting.
  Task      293 on host nid001329 reporting.
  Task      294 on host nid001329 reporting.
  Task      295 on host nid001329 reporting.
  Task      296 on host nid001329 reporting.
  Task      297 on host nid001329 reporting.
  Task      298 on host nid001329 reporting.
  Task      299 on host nid001329 reporting.
  Task      300 on host nid001329 reporting.
  Task      301 on host nid001329 reporting.
  Task      302 on host nid001329 reporting.
  Task      303 on host nid001329 reporting.
  Task      304 on host nid001329 reporting.
  Task      305 on host nid001329 reporting.
  Task      306 on host nid001329 reporting.
  Task      307 on host nid001329 reporting.
  Task      308 on host nid001329 reporting.
  Task      309 on host nid001329 reporting.
  Task      310 on host nid001329 reporting.
  Task      311 on host nid001329 reporting.
  Task      312 on host nid001329 reporting.
  Task      313 on host nid001329 reporting.
  Task      314 on host nid001329 reporting.
  Task      315 on host nid001329 reporting.
  Task      316 on host nid001329 reporting.
  Task      317 on host nid001329 reporting.
  Task      318 on host nid001329 reporting.
  Task      319 on host nid001329 reporting.
  Task      320 on host nid001382 reporting.
  Task      321 on host nid001382 reporting.
  Task      322 on host nid001382 reporting.
  Task      323 on host nid001382 reporting.
  Task      324 on host nid001382 reporting.
  Task      325 on host nid001382 reporting.
  Task      326 on host nid001382 reporting.
  Task      327 on host nid001382 reporting.
  Task      328 on host nid001382 reporting.
  Task      329 on host nid001382 reporting.
  Task      330 on host nid001382 reporting.
  Task      331 on host nid001382 reporting.
  Task      332 on host nid001382 reporting.
  Task      333 on host nid001382 reporting.
  Task      334 on host nid001382 reporting.
  Task      335 on host nid001382 reporting.
  Task      336 on host nid001382 reporting.
  Task      337 on host nid001382 reporting.
  Task      338 on host nid001382 reporting.
  Task      339 on host nid001382 reporting.
  Task      340 on host nid001382 reporting.
  Task      341 on host nid001382 reporting.
  Task      342 on host nid001382 reporting.
  Task      343 on host nid001382 reporting.
  Task      344 on host nid001382 reporting.
  Task      345 on host nid001382 reporting.
  Task      346 on host nid001382 reporting.
  Task      347 on host nid001382 reporting.
  Task      348 on host nid001382 reporting.
  Task      349 on host nid001382 reporting.
  Task      350 on host nid001382 reporting.
  Task      351 on host nid001382 reporting.
  Task      352 on host nid001382 reporting.
  Task      353 on host nid001382 reporting.
  Task      354 on host nid001382 reporting.
  Task      355 on host nid001382 reporting.
  Task      356 on host nid001382 reporting.
  Task      357 on host nid001382 reporting.
  Task      358 on host nid001382 reporting.
  Task      359 on host nid001382 reporting.
  Task      360 on host nid001382 reporting.
  Task      361 on host nid001382 reporting.
  Task      362 on host nid001382 reporting.
  Task      363 on host nid001382 reporting.
  Task      364 on host nid001382 reporting.
  Task      365 on host nid001382 reporting.
  Task      366 on host nid001382 reporting.
  Task      367 on host nid001382 reporting.
  Task      368 on host nid001382 reporting.
  Task      369 on host nid001382 reporting.
  Task      370 on host nid001382 reporting.
  Task      371 on host nid001382 reporting.
  Task      372 on host nid001382 reporting.
  Task      373 on host nid001382 reporting.
  Task      374 on host nid001382 reporting.
  Task      375 on host nid001382 reporting.
  Task      376 on host nid001382 reporting.
  Task      377 on host nid001382 reporting.
  Task      378 on host nid001382 reporting.
  Task      379 on host nid001382 reporting.
  Task      380 on host nid001382 reporting.
  Task      381 on host nid001382 reporting.
  Task      382 on host nid001382 reporting.
  Task      383 on host nid001382 reporting.
  Task      384 on host nid002354 reporting.
  Task      385 on host nid002354 reporting.
  Task      386 on host nid002354 reporting.
  Task      387 on host nid002354 reporting.
  Task      388 on host nid002354 reporting.
  Task      389 on host nid002354 reporting.
  Task      390 on host nid002354 reporting.
  Task      391 on host nid002354 reporting.
  Task      392 on host nid002354 reporting.
  Task      393 on host nid002354 reporting.
  Task      394 on host nid002354 reporting.
  Task      395 on host nid002354 reporting.
  Task      396 on host nid002354 reporting.
  Task      397 on host nid002354 reporting.
  Task      398 on host nid002354 reporting.
  Task      399 on host nid002354 reporting.
  Task      400 on host nid002354 reporting.
  Task      401 on host nid002354 reporting.
  Task      402 on host nid002354 reporting.
  Task      403 on host nid002354 reporting.
  Task      404 on host nid002354 reporting.
  Task      405 on host nid002354 reporting.
  Task      406 on host nid002354 reporting.
  Task      407 on host nid002354 reporting.
  Task      408 on host nid002354 reporting.
  Task      409 on host nid002354 reporting.
  Task      410 on host nid002354 reporting.
  Task      411 on host nid002354 reporting.
  Task      412 on host nid002354 reporting.
  Task      413 on host nid002354 reporting.
  Task      414 on host nid002354 reporting.
  Task      415 on host nid002354 reporting.
  Task      416 on host nid002354 reporting.
  Task      417 on host nid002354 reporting.
  Task      418 on host nid002354 reporting.
  Task      419 on host nid002354 reporting.
  Task      420 on host nid002354 reporting.
  Task      421 on host nid002354 reporting.
  Task      422 on host nid002354 reporting.
  Task      423 on host nid002354 reporting.
  Task      424 on host nid002354 reporting.
  Task      425 on host nid002354 reporting.
  Task      426 on host nid002354 reporting.
  Task      427 on host nid002354 reporting.
  Task      428 on host nid002354 reporting.
  Task      429 on host nid002354 reporting.
  Task      430 on host nid002354 reporting.
  Task      431 on host nid002354 reporting.
  Task      432 on host nid002354 reporting.
  Task      433 on host nid002354 reporting.
  Task      434 on host nid002354 reporting.
  Task      435 on host nid002354 reporting.
  Task      436 on host nid002354 reporting.
  Task      437 on host nid002354 reporting.
  Task      438 on host nid002354 reporting.
  Task      439 on host nid002354 reporting.
  Task      440 on host nid002354 reporting.
  Task      441 on host nid002354 reporting.
  Task      442 on host nid002354 reporting.
  Task      443 on host nid002354 reporting.
  Task      444 on host nid002354 reporting.
  Task      445 on host nid002354 reporting.
  Task      446 on host nid002354 reporting.
  Task      447 on host nid002354 reporting.
  Task      448 on host nid002386 reporting.
  Task      449 on host nid002386 reporting.
  Task      450 on host nid002386 reporting.
  Task      451 on host nid002386 reporting.
  Task      452 on host nid002386 reporting.
  Task      453 on host nid002386 reporting.
  Task      454 on host nid002386 reporting.
  Task      455 on host nid002386 reporting.
  Task      456 on host nid002386 reporting.
  Task      457 on host nid002386 reporting.
  Task      458 on host nid002386 reporting.
  Task      459 on host nid002386 reporting.
  Task      460 on host nid002386 reporting.
  Task      461 on host nid002386 reporting.
  Task      462 on host nid002386 reporting.
  Task      463 on host nid002386 reporting.
  Task      464 on host nid002386 reporting.
  Task      465 on host nid002386 reporting.
  Task      466 on host nid002386 reporting.
  Task      467 on host nid002386 reporting.
  Task      468 on host nid002386 reporting.
  Task      469 on host nid002386 reporting.
  Task      470 on host nid002386 reporting.
  Task      471 on host nid002386 reporting.
  Task      472 on host nid002386 reporting.
  Task      473 on host nid002386 reporting.
  Task      474 on host nid002386 reporting.
  Task      475 on host nid002386 reporting.
  Task      476 on host nid002386 reporting.
  Task      477 on host nid002386 reporting.
  Task      478 on host nid002386 reporting.
  Task      479 on host nid002386 reporting.
  Task      480 on host nid002386 reporting.
  Task      481 on host nid002386 reporting.
  Task      482 on host nid002386 reporting.
  Task      483 on host nid002386 reporting.
  Task      484 on host nid002386 reporting.
  Task      485 on host nid002386 reporting.
  Task      486 on host nid002386 reporting.
  Task      487 on host nid002386 reporting.
  Task      488 on host nid002386 reporting.
  Task      489 on host nid002386 reporting.
  Task      490 on host nid002386 reporting.
  Task      491 on host nid002386 reporting.
  Task      492 on host nid002386 reporting.
  Task      493 on host nid002386 reporting.
  Task      494 on host nid002386 reporting.
  Task      495 on host nid002386 reporting.
  Task      496 on host nid002386 reporting.
  Task      497 on host nid002386 reporting.
  Task      498 on host nid002386 reporting.
  Task      499 on host nid002386 reporting.
  Task      500 on host nid002386 reporting.
  Task      501 on host nid002386 reporting.
  Task      502 on host nid002386 reporting.
  Task      503 on host nid002386 reporting.
  Task      504 on host nid002386 reporting.
  Task      505 on host nid002386 reporting.
  Task      506 on host nid002386 reporting.
  Task      507 on host nid002386 reporting.
  Task      508 on host nid002386 reporting.
  Task      509 on host nid002386 reporting.
  Task      510 on host nid002386 reporting.
  Task      511 on host nid002386 reporting.
  Task      512 on host nid002405 reporting.
  Task      513 on host nid002405 reporting.
  Task      514 on host nid002405 reporting.
  Task      515 on host nid002405 reporting.
  Task      516 on host nid002405 reporting.
  Task      517 on host nid002405 reporting.
  Task      518 on host nid002405 reporting.
  Task      519 on host nid002405 reporting.
  Task      520 on host nid002405 reporting.
  Task      521 on host nid002405 reporting.
  Task      522 on host nid002405 reporting.
  Task      523 on host nid002405 reporting.
  Task      524 on host nid002405 reporting.
  Task      525 on host nid002405 reporting.
  Task      526 on host nid002405 reporting.
  Task      527 on host nid002405 reporting.
  Task      528 on host nid002405 reporting.
  Task      529 on host nid002405 reporting.
  Task      530 on host nid002405 reporting.
  Task      531 on host nid002405 reporting.
  Task      532 on host nid002405 reporting.
  Task      533 on host nid002405 reporting.
  Task      534 on host nid002405 reporting.
  Task      535 on host nid002405 reporting.
  Task      536 on host nid002405 reporting.
  Task      537 on host nid002405 reporting.
  Task      538 on host nid002405 reporting.
  Task      539 on host nid002405 reporting.
  Task      540 on host nid002405 reporting.
  Task      541 on host nid002405 reporting.
  Task      542 on host nid002405 reporting.
  Task      543 on host nid002405 reporting.
  Task      544 on host nid002405 reporting.
  Task      545 on host nid002405 reporting.
  Task      546 on host nid002405 reporting.
  Task      547 on host nid002405 reporting.
  Task      548 on host nid002405 reporting.
  Task      549 on host nid002405 reporting.
  Task      550 on host nid002405 reporting.
  Task      551 on host nid002405 reporting.
  Task      552 on host nid002405 reporting.
  Task      553 on host nid002405 reporting.
  Task      554 on host nid002405 reporting.
  Task      555 on host nid002405 reporting.
  Task      556 on host nid002405 reporting.
  Task      557 on host nid002405 reporting.
  Task      558 on host nid002405 reporting.
  Task      559 on host nid002405 reporting.
  Task      560 on host nid002405 reporting.
  Task      561 on host nid002405 reporting.
  Task      562 on host nid002405 reporting.
  Task      563 on host nid002405 reporting.
  Task      564 on host nid002405 reporting.
  Task      565 on host nid002405 reporting.
  Task      566 on host nid002405 reporting.
  Task      567 on host nid002405 reporting.
  Task      568 on host nid002405 reporting.
  Task      569 on host nid002405 reporting.
  Task      570 on host nid002405 reporting.
  Task      571 on host nid002405 reporting.
  Task      572 on host nid002405 reporting.
  Task      573 on host nid002405 reporting.
  Task      574 on host nid002405 reporting.
  Task      575 on host nid002405 reporting.
  Task      576 on host nid002448 reporting.
  Task      577 on host nid002448 reporting.
  Task      578 on host nid002448 reporting.
  Task      579 on host nid002448 reporting.
  Task      580 on host nid002448 reporting.
  Task      581 on host nid002448 reporting.
  Task      582 on host nid002448 reporting.
  Task      583 on host nid002448 reporting.
  Task      584 on host nid002448 reporting.
  Task      585 on host nid002448 reporting.
  Task      586 on host nid002448 reporting.
  Task      587 on host nid002448 reporting.
  Task      588 on host nid002448 reporting.
  Task      589 on host nid002448 reporting.
  Task      590 on host nid002448 reporting.
  Task      591 on host nid002448 reporting.
  Task      592 on host nid002448 reporting.
  Task      593 on host nid002448 reporting.
  Task      594 on host nid002448 reporting.
  Task      595 on host nid002448 reporting.
  Task      596 on host nid002448 reporting.
  Task      597 on host nid002448 reporting.
  Task      598 on host nid002448 reporting.
  Task      599 on host nid002448 reporting.
  Task      600 on host nid002448 reporting.
  Task      601 on host nid002448 reporting.
  Task      602 on host nid002448 reporting.
  Task      603 on host nid002448 reporting.
  Task      604 on host nid002448 reporting.
  Task      605 on host nid002448 reporting.
  Task      606 on host nid002448 reporting.
  Task      607 on host nid002448 reporting.
  Task      608 on host nid002448 reporting.
  Task      609 on host nid002448 reporting.
  Task      610 on host nid002448 reporting.
  Task      611 on host nid002448 reporting.
  Task      612 on host nid002448 reporting.
  Task      613 on host nid002448 reporting.
  Task      614 on host nid002448 reporting.
  Task      615 on host nid002448 reporting.
  Task      616 on host nid002448 reporting.
  Task      617 on host nid002448 reporting.
  Task      618 on host nid002448 reporting.
  Task      619 on host nid002448 reporting.
  Task      620 on host nid002448 reporting.
  Task      621 on host nid002448 reporting.
  Task      622 on host nid002448 reporting.
  Task      623 on host nid002448 reporting.
  Task      624 on host nid002448 reporting.
  Task      625 on host nid002448 reporting.
  Task      626 on host nid002448 reporting.
  Task      627 on host nid002448 reporting.
  Task      628 on host nid002448 reporting.
  Task      629 on host nid002448 reporting.
  Task      630 on host nid002448 reporting.
  Task      631 on host nid002448 reporting.
  Task      632 on host nid002448 reporting.
  Task      633 on host nid002448 reporting.
  Task      634 on host nid002448 reporting.
  Task      635 on host nid002448 reporting.
  Task      636 on host nid002448 reporting.
  Task      637 on host nid002448 reporting.
  Task      638 on host nid002448 reporting.
  Task      639 on host nid002448 reporting.
  Task      640 on host nid002449 reporting.
  Task      641 on host nid002449 reporting.
  Task      642 on host nid002449 reporting.
  Task      643 on host nid002449 reporting.
  Task      644 on host nid002449 reporting.
  Task      645 on host nid002449 reporting.
  Task      646 on host nid002449 reporting.
  Task      647 on host nid002449 reporting.
  Task      648 on host nid002449 reporting.
  Task      649 on host nid002449 reporting.
  Task      650 on host nid002449 reporting.
  Task      651 on host nid002449 reporting.
  Task      652 on host nid002449 reporting.
  Task      653 on host nid002449 reporting.
  Task      654 on host nid002449 reporting.
  Task      655 on host nid002449 reporting.
  Task      656 on host nid002449 reporting.
  Task      657 on host nid002449 reporting.
  Task      658 on host nid002449 reporting.
  Task      659 on host nid002449 reporting.
  Task      660 on host nid002449 reporting.
  Task      661 on host nid002449 reporting.
  Task      662 on host nid002449 reporting.
  Task      663 on host nid002449 reporting.
  Task      664 on host nid002449 reporting.
  Task      665 on host nid002449 reporting.
  Task      666 on host nid002449 reporting.
  Task      667 on host nid002449 reporting.
  Task      668 on host nid002449 reporting.
  Task      669 on host nid002449 reporting.
  Task      670 on host nid002449 reporting.
  Task      671 on host nid002449 reporting.
  Task      672 on host nid002449 reporting.
  Task      673 on host nid002449 reporting.
  Task      674 on host nid002449 reporting.
  Task      675 on host nid002449 reporting.
  Task      676 on host nid002449 reporting.
  Task      677 on host nid002449 reporting.
  Task      678 on host nid002449 reporting.
  Task      679 on host nid002449 reporting.
  Task      680 on host nid002449 reporting.
  Task      681 on host nid002449 reporting.
  Task      682 on host nid002449 reporting.
  Task      683 on host nid002449 reporting.
  Task      684 on host nid002449 reporting.
  Task      685 on host nid002449 reporting.
  Task      686 on host nid002449 reporting.
  Task      687 on host nid002449 reporting.
  Task      688 on host nid002449 reporting.
  Task      689 on host nid002449 reporting.
  Task      690 on host nid002449 reporting.
  Task      691 on host nid002449 reporting.
  Task      692 on host nid002449 reporting.
  Task      693 on host nid002449 reporting.
  Task      694 on host nid002449 reporting.
  Task      695 on host nid002449 reporting.
  Task      696 on host nid002449 reporting.
  Task      697 on host nid002449 reporting.
  Task      698 on host nid002449 reporting.
  Task      699 on host nid002449 reporting.
  Task      700 on host nid002449 reporting.
  Task      701 on host nid002449 reporting.
  Task      702 on host nid002449 reporting.
  Task      703 on host nid002449 reporting.
  Task      704 on host nid002490 reporting.
  Task      705 on host nid002490 reporting.
  Task      706 on host nid002490 reporting.
  Task      707 on host nid002490 reporting.
  Task      708 on host nid002490 reporting.
  Task      709 on host nid002490 reporting.
  Task      710 on host nid002490 reporting.
  Task      711 on host nid002490 reporting.
  Task      712 on host nid002490 reporting.
  Task      713 on host nid002490 reporting.
  Task      714 on host nid002490 reporting.
  Task      715 on host nid002490 reporting.
  Task      716 on host nid002490 reporting.
  Task      717 on host nid002490 reporting.
  Task      718 on host nid002490 reporting.
  Task      719 on host nid002490 reporting.
  Task      720 on host nid002490 reporting.
  Task      721 on host nid002490 reporting.
  Task      722 on host nid002490 reporting.
  Task      723 on host nid002490 reporting.
  Task      724 on host nid002490 reporting.
  Task      725 on host nid002490 reporting.
  Task      726 on host nid002490 reporting.
  Task      727 on host nid002490 reporting.
  Task      728 on host nid002490 reporting.
  Task      729 on host nid002490 reporting.
  Task      730 on host nid002490 reporting.
  Task      731 on host nid002490 reporting.
  Task      732 on host nid002490 reporting.
  Task      733 on host nid002490 reporting.
  Task      734 on host nid002490 reporting.
  Task      735 on host nid002490 reporting.
  Task      736 on host nid002490 reporting.
  Task      737 on host nid002490 reporting.
  Task      738 on host nid002490 reporting.
  Task      739 on host nid002490 reporting.
  Task      740 on host nid002490 reporting.
  Task      741 on host nid002490 reporting.
  Task      742 on host nid002490 reporting.
  Task      743 on host nid002490 reporting.
  Task      744 on host nid002490 reporting.
  Task      745 on host nid002490 reporting.
  Task      746 on host nid002490 reporting.
  Task      747 on host nid002490 reporting.
  Task      748 on host nid002490 reporting.
  Task      749 on host nid002490 reporting.
  Task      750 on host nid002490 reporting.
  Task      751 on host nid002490 reporting.
  Task      752 on host nid002490 reporting.
  Task      753 on host nid002490 reporting.
  Task      754 on host nid002490 reporting.
  Task      755 on host nid002490 reporting.
  Task      756 on host nid002490 reporting.
  Task      757 on host nid002490 reporting.
  Task      758 on host nid002490 reporting.
  Task      759 on host nid002490 reporting.
  Task      760 on host nid002490 reporting.
  Task      761 on host nid002490 reporting.
  Task      762 on host nid002490 reporting.
  Task      763 on host nid002490 reporting.
  Task      764 on host nid002490 reporting.
  Task      765 on host nid002490 reporting.
  Task      766 on host nid002490 reporting.
  Task      767 on host nid002490 reporting.
  Task      768 on host nid002516 reporting.
  Task      769 on host nid002516 reporting.
  Task      770 on host nid002516 reporting.
  Task      771 on host nid002516 reporting.
  Task      772 on host nid002516 reporting.
  Task      773 on host nid002516 reporting.
  Task      774 on host nid002516 reporting.
  Task      775 on host nid002516 reporting.
  Task      776 on host nid002516 reporting.
  Task      777 on host nid002516 reporting.
  Task      778 on host nid002516 reporting.
  Task      779 on host nid002516 reporting.
  Task      780 on host nid002516 reporting.
  Task      781 on host nid002516 reporting.
  Task      782 on host nid002516 reporting.
  Task      783 on host nid002516 reporting.
  Task      784 on host nid002516 reporting.
  Task      785 on host nid002516 reporting.
  Task      786 on host nid002516 reporting.
  Task      787 on host nid002516 reporting.
  Task      788 on host nid002516 reporting.
  Task      789 on host nid002516 reporting.
  Task      790 on host nid002516 reporting.
  Task      791 on host nid002516 reporting.
  Task      792 on host nid002516 reporting.
  Task      793 on host nid002516 reporting.
  Task      794 on host nid002516 reporting.
  Task      795 on host nid002516 reporting.
  Task      796 on host nid002516 reporting.
  Task      797 on host nid002516 reporting.
  Task      798 on host nid002516 reporting.
  Task      799 on host nid002516 reporting.
  Task      800 on host nid002516 reporting.
  Task      801 on host nid002516 reporting.
  Task      802 on host nid002516 reporting.
  Task      803 on host nid002516 reporting.
  Task      804 on host nid002516 reporting.
  Task      805 on host nid002516 reporting.
  Task      806 on host nid002516 reporting.
  Task      807 on host nid002516 reporting.
  Task      808 on host nid002516 reporting.
  Task      809 on host nid002516 reporting.
  Task      810 on host nid002516 reporting.
  Task      811 on host nid002516 reporting.
  Task      812 on host nid002516 reporting.
  Task      813 on host nid002516 reporting.
  Task      814 on host nid002516 reporting.
  Task      815 on host nid002516 reporting.
  Task      816 on host nid002516 reporting.
  Task      817 on host nid002516 reporting.
  Task      818 on host nid002516 reporting.
  Task      819 on host nid002516 reporting.
  Task      820 on host nid002516 reporting.
  Task      821 on host nid002516 reporting.
  Task      822 on host nid002516 reporting.
  Task      823 on host nid002516 reporting.
  Task      824 on host nid002516 reporting.
  Task      825 on host nid002516 reporting.
  Task      826 on host nid002516 reporting.
  Task      827 on host nid002516 reporting.
  Task      828 on host nid002516 reporting.
  Task      829 on host nid002516 reporting.
  Task      830 on host nid002516 reporting.
  Task      831 on host nid002516 reporting.
  Task      832 on host nid002644 reporting.
  Task      833 on host nid002644 reporting.
  Task      834 on host nid002644 reporting.
  Task      835 on host nid002644 reporting.
  Task      836 on host nid002644 reporting.
  Task      837 on host nid002644 reporting.
  Task      838 on host nid002644 reporting.
  Task      839 on host nid002644 reporting.
  Task      840 on host nid002644 reporting.
  Task      841 on host nid002644 reporting.
  Task      842 on host nid002644 reporting.
  Task      843 on host nid002644 reporting.
  Task      844 on host nid002644 reporting.
  Task      845 on host nid002644 reporting.
  Task      846 on host nid002644 reporting.
  Task      847 on host nid002644 reporting.
  Task      848 on host nid002644 reporting.
  Task      849 on host nid002644 reporting.
  Task      850 on host nid002644 reporting.
  Task      851 on host nid002644 reporting.
  Task      852 on host nid002644 reporting.
  Task      853 on host nid002644 reporting.
  Task      854 on host nid002644 reporting.
  Task      855 on host nid002644 reporting.
  Task      856 on host nid002644 reporting.
  Task      857 on host nid002644 reporting.
  Task      858 on host nid002644 reporting.
  Task      859 on host nid002644 reporting.
  Task      860 on host nid002644 reporting.
  Task      861 on host nid002644 reporting.
  Task      862 on host nid002644 reporting.
  Task      863 on host nid002644 reporting.
  Task      864 on host nid002644 reporting.
  Task      865 on host nid002644 reporting.
  Task      866 on host nid002644 reporting.
  Task      867 on host nid002644 reporting.
  Task      868 on host nid002644 reporting.
  Task      869 on host nid002644 reporting.
  Task      870 on host nid002644 reporting.
  Task      871 on host nid002644 reporting.
  Task      872 on host nid002644 reporting.
  Task      873 on host nid002644 reporting.
  Task      874 on host nid002644 reporting.
  Task      875 on host nid002644 reporting.
  Task      876 on host nid002644 reporting.
  Task      877 on host nid002644 reporting.
  Task      878 on host nid002644 reporting.
  Task      879 on host nid002644 reporting.
  Task      880 on host nid002644 reporting.
  Task      881 on host nid002644 reporting.
  Task      882 on host nid002644 reporting.
  Task      883 on host nid002644 reporting.
  Task      884 on host nid002644 reporting.
  Task      885 on host nid002644 reporting.
  Task      886 on host nid002644 reporting.
  Task      887 on host nid002644 reporting.
  Task      888 on host nid002644 reporting.
  Task      889 on host nid002644 reporting.
  Task      890 on host nid002644 reporting.
  Task      891 on host nid002644 reporting.
  Task      892 on host nid002644 reporting.
  Task      893 on host nid002644 reporting.
  Task      894 on host nid002644 reporting.
  Task      895 on host nid002644 reporting.
  Task      896 on host nid002652 reporting.
  Task      897 on host nid002652 reporting.
  Task      898 on host nid002652 reporting.
  Task      899 on host nid002652 reporting.
  Task      900 on host nid002652 reporting.
  Task      901 on host nid002652 reporting.
  Task      902 on host nid002652 reporting.
  Task      903 on host nid002652 reporting.
  Task      904 on host nid002652 reporting.
  Task      905 on host nid002652 reporting.
  Task      906 on host nid002652 reporting.
  Task      907 on host nid002652 reporting.
  Task      908 on host nid002652 reporting.
  Task      909 on host nid002652 reporting.
  Task      910 on host nid002652 reporting.
  Task      911 on host nid002652 reporting.
  Task      912 on host nid002652 reporting.
  Task      913 on host nid002652 reporting.
  Task      914 on host nid002652 reporting.
  Task      915 on host nid002652 reporting.
  Task      916 on host nid002652 reporting.
  Task      917 on host nid002652 reporting.
  Task      918 on host nid002652 reporting.
  Task      919 on host nid002652 reporting.
  Task      920 on host nid002652 reporting.
  Task      921 on host nid002652 reporting.
  Task      922 on host nid002652 reporting.
  Task      923 on host nid002652 reporting.
  Task      924 on host nid002652 reporting.
  Task      925 on host nid002652 reporting.
  Task      926 on host nid002652 reporting.
  Task      927 on host nid002652 reporting.
  Task      928 on host nid002652 reporting.
  Task      929 on host nid002652 reporting.
  Task      930 on host nid002652 reporting.
  Task      931 on host nid002652 reporting.
  Task      932 on host nid002652 reporting.
  Task      933 on host nid002652 reporting.
  Task      934 on host nid002652 reporting.
  Task      935 on host nid002652 reporting.
  Task      936 on host nid002652 reporting.
  Task      937 on host nid002652 reporting.
  Task      938 on host nid002652 reporting.
  Task      939 on host nid002652 reporting.
  Task      940 on host nid002652 reporting.
  Task      941 on host nid002652 reporting.
  Task      942 on host nid002652 reporting.
  Task      943 on host nid002652 reporting.
  Task      944 on host nid002652 reporting.
  Task      945 on host nid002652 reporting.
  Task      946 on host nid002652 reporting.
  Task      947 on host nid002652 reporting.
  Task      948 on host nid002652 reporting.
  Task      949 on host nid002652 reporting.
  Task      950 on host nid002652 reporting.
  Task      951 on host nid002652 reporting.
  Task      952 on host nid002652 reporting.
  Task      953 on host nid002652 reporting.
  Task      954 on host nid002652 reporting.
  Task      955 on host nid002652 reporting.
  Task      956 on host nid002652 reporting.
  Task      957 on host nid002652 reporting.
  Task      958 on host nid002652 reporting.
  Task      959 on host nid002652 reporting.
  Task      960 on host nid002657 reporting.
  Task      961 on host nid002657 reporting.
  Task      962 on host nid002657 reporting.
  Task      963 on host nid002657 reporting.
  Task      964 on host nid002657 reporting.
  Task      965 on host nid002657 reporting.
  Task      966 on host nid002657 reporting.
  Task      967 on host nid002657 reporting.
  Task      968 on host nid002657 reporting.
  Task      969 on host nid002657 reporting.
  Task      970 on host nid002657 reporting.
  Task      971 on host nid002657 reporting.
  Task      972 on host nid002657 reporting.
  Task      973 on host nid002657 reporting.
  Task      974 on host nid002657 reporting.
  Task      975 on host nid002657 reporting.
  Task      976 on host nid002657 reporting.
  Task      977 on host nid002657 reporting.
  Task      978 on host nid002657 reporting.
  Task      979 on host nid002657 reporting.
  Task      980 on host nid002657 reporting.
  Task      981 on host nid002657 reporting.
  Task      982 on host nid002657 reporting.
  Task      983 on host nid002657 reporting.
  Task      984 on host nid002657 reporting.
  Task      985 on host nid002657 reporting.
  Task      986 on host nid002657 reporting.
  Task      987 on host nid002657 reporting.
  Task      988 on host nid002657 reporting.
  Task      989 on host nid002657 reporting.
  Task      990 on host nid002657 reporting.
  Task      991 on host nid002657 reporting.
  Task      992 on host nid002657 reporting.
  Task      993 on host nid002657 reporting.
  Task      994 on host nid002657 reporting.
  Task      995 on host nid002657 reporting.
  Task      996 on host nid002657 reporting.
  Task      997 on host nid002657 reporting.
  Task      998 on host nid002657 reporting.
  Task      999 on host nid002657 reporting.
  Task     1000 on host nid002657 reporting.
  Task     1001 on host nid002657 reporting.
  Task     1002 on host nid002657 reporting.
  Task     1003 on host nid002657 reporting.
  Task     1004 on host nid002657 reporting.
  Task     1005 on host nid002657 reporting.
  Task     1006 on host nid002657 reporting.
  Task     1007 on host nid002657 reporting.
  Task     1008 on host nid002657 reporting.
  Task     1009 on host nid002657 reporting.
  Task     1010 on host nid002657 reporting.
  Task     1011 on host nid002657 reporting.
  Task     1012 on host nid002657 reporting.
  Task     1013 on host nid002657 reporting.
  Task     1014 on host nid002657 reporting.
  Task     1015 on host nid002657 reporting.
  Task     1016 on host nid002657 reporting.
  Task     1017 on host nid002657 reporting.
  Task     1018 on host nid002657 reporting.
  Task     1019 on host nid002657 reporting.
  Task     1020 on host nid002657 reporting.
  Task     1021 on host nid002657 reporting.
  Task     1022 on host nid002657 reporting.
  Task     1023 on host nid002657 reporting.

  Performing system and environment tests:
  | Environment variable OMP_NUM_THREADS correctly set to 1.
  | Checking for ScaLAPACK...
  | Testing pdtran()...
  | All pdtran() tests passed.

  Obtaining array dimensions for all initial allocations:
  
  -----------------------------------------------------------------------
  Parsing control.in (first pass over file, find array dimensions only).
  The contents of control.in will be repeated verbatim below
  unless switched off by setting 'verbatim_writeout .false.' .
  in the first line of control.in .
  -----------------------------------------------------------------------
  
  #===============================================================================
  # FHI-aims file: ./control.in
  # Created using the Atomic Simulation Environment (ASE)
  # Tue Apr 30 03:54:50 2024
  #===============================================================================
  xc                                 hse06 0.11
  hse_unit                           bohr-1
  k_grid                             6 6 8
  sc_accuracy_rho                    1e-06
  relativistic                       atomic_zora scalar
  output_level                       MD_light
  compute_forces                     .true.
  compute_analytical_stress          .true.
  #===============================================================================
  
  ################################################################################
  #
  #  FHI-aims code project
  #  VB, Fritz-Haber Institut, 2009
  #
  #  Suggested "light" defaults for Ba atom (to be pasted into control.in file)
  #  Be sure to double-check any results obtained with these settings for post-processing,
  #  e.g., with the "tight" defaults and larger basis sets.
  #
  #  2020/09/27 Increase cut_pot 4.0 -> 5.0, radial_base 5.5 -> 6.5 AA
  #             for better description of metallic Ba.
  #
  ################################################################################
    species          Ba
  #     global species definitions
      nucleus        56
      mass           137.327
  #
      l_hartree      4
  #
      cut_pot        5.0  1.5  1.0
      basis_dep_cutoff    1e-4
  #
      radial_base    65  6.5
      radial_multiplier  1
      angular_grids specified
        division   0.6752  110
        division   0.9746  194
        division   1.2241  302
  #      division   1.3850  434
  #      division   1.4734  590
  #      division   1.6010  770
  #      division   4.8366  974
  #      outer_grid  974
        outer_grid  302
  ################################################################################
  #
  #  Definition of "minimal" basis
  #
  ################################################################################
  #     valence basis states
      valence      6  s   2.
      valence      5  p   6.
      valence      4  d  10.
  #     ion occupancy
      ion_occ      6  s   1.
      ion_occ      5  p   6.
      ion_occ      4  d  10.
  ################################################################################
  #
  #  Suggested additional basis functions. For production calculations,
  #  uncomment them one after another (the most important basis functions are
  #  listed first).
  #
  #  Constructed for dimers: 2.65, 3.00, 3.50, 4.40, 5.50 Ang
  #
  ################################################################################
  #  "First tier" - improvements: -1277.43 meV to -9.16 meV
       ionic 5 d auto
       ionic 4 f auto
       hydro 3 p 2.7
       hydro 4 s 3.3
  #  "Second tier" - improvements: -64.04 (!) meV to -0.25 meV
  #     hydro 4 f 5.8
  #     hydro 5 g 7.4
  #     hydro 4 d 4.5
  #     hydro 6 h 11.2
  #     hydro 5 p 6.6
  #     hydro 2 s 3.2
  #  "Third tier" - max. impr. -1.16 meV, min. impr. -0.08 meV
  #     hydro 5 f 7.4
  #     hydro 5 g 10.8
  #     hydro 4 d 2.3
  #     hydro 4 p 3.7
  #     hydro 5 s 4.0
  #  Further functions - impr. -0.35 meV and below
  #     hydro 5 d 3.5
  #     hydro 6 d 0.4
  #     hydro 2 p 2.5
  #     hydro 5 f 12
  #     hydro 6 d 8.8
  ################################################################################
  #
  #  FHI-aims code project
  #  VB, Fritz-Haber Institut, 2009
  #
  #  Suggested "light" defaults for Zr atom (to be pasted into control.in file)
  #  Be sure to double-check any results obtained with these settings for post-processing,
  #  e.g., with the "tight" defaults and larger basis sets.
  #
  ################################################################################
    species          Zr
  #     global species definitions
      nucleus        40
      mass           91.224
  #
      l_hartree      4
  #
      cut_pot        3.5  1.5  1.0
      basis_dep_cutoff    1e-4
  #
      radial_base    58  5.0
      radial_multiplier  1
      angular_grids specified
        division   0.5825   50
        division   1.1060  110
        division   1.4586  194
        division   1.7061  302
  #      division   1.9320  434
  #      division   2.2803  590
  #      division   2.4151  770
  #      division   2.4626  974
  #      division   3.1649 1202
  #      outer_grid  974
        outer_grid  302
  ################################################################################
  #
  #  Definition of "minimal" basis
  #
  ################################################################################
  #     valence basis states
      valence      5  s   2.
      valence      4  p   6.
      valence      4  d   2.
  #     ion occupancy
      ion_occ      5  s   1.
      ion_occ      4  p   6.
      ion_occ      4  d   1.
  ################################################################################
  #
  #  Suggested additional basis functions. For production calculations,
  #  uncomment them one after another (the most important basis functions are
  #  listed first).
  #
  #  Constructed for dimers: 1.9, 2.25, 3.00, 4.00 Ang
  #
  ################################################################################
  #  "First tier" - improvements: -605.96 meV to -18.06 meV
       hydro 4 f 7.2
       ionic 4 d auto
       ionic 5 p auto
  #     hydro 5 g 10.4
       ionic 5 s auto
  #  "Second tier" - improvements: -32.47 meV to -1.41 meV
  #     hydro 4 f 10.4
  #     hydro 6 h 14.8
  #     hydro 4 d 6.2
  #     hydro 4 p 4.4
  #     hydro 4 f 20
  #     hydro 5 s 6
  #  "Third tier" - improvements: -1.99 meV and lower.
  #     hydro 4 f 5.8
  #     hydro 5 g 10.8
  #     hydro 2 p 1
  #     hydro 3 d 8
  #     hydro 6 h 14.4
  #     hydro 1 s 0.9
  #  Further functions (approx -0.40 meV and below possible)
  ################################################################################
  #
  #  FHI-aims code project
  #  VB, Fritz-Haber Institut, 2009
  #
  #  Suggested "light" defaults for S atom (to be pasted into control.in file)
  #  Be sure to double-check any results obtained with these settings for post-processing,
  #  e.g., with the "tight" defaults and larger basis sets.
  #
  #  2020/09/08 Added f function to "light" after reinspection of Delta test outcomes.
  #             This was done for all of Al-Cl and is a tricky decision since it makes
  #             "light" calculations measurably more expensive for these elements.
  #             Nevertheless, outcomes for P, S, Cl (and to some extent, Si) appear
  #             to justify this choice.
  #
  ################################################################################
    species        S
  #     global species definitions
      nucleus             16
      mass                32.065
  #
      l_hartree           4
  #
      cut_pot             3.5          1.5  1.0
      basis_dep_cutoff    1e-4
  #
      radial_base         44 5.0
      radial_multiplier   1
      angular_grids       specified
        division   0.4665  110
        division   0.5810  194
        division   0.7139  302
  #      division   0.8274  434
  #      division   0.9105  590
  #      division   1.0975  770
  #      division   1.2028  974
  #      outer_grid  974
        outer_grid  302
  ################################################################################
  #
  #  Definition of "minimal" basis
  #
  ################################################################################
  #     valence basis states
      valence      3  s   2.
      valence      3  p   4.
  #     ion occupancy
      ion_occ      3  s   1.
      ion_occ      3  p   3.
  ################################################################################
  #
  #  Suggested additional basis functions. For production calculations,
  #  uncomment them one after another (the most important basis functions are
  #  listed first).
  #
  #  Constructed for dimers: 1.6 A, 1.9 A, 2.5 A, 3.25 A, 4.0 A
  #
  ################################################################################
  #  "First tier" - improvements: -652.81 meV to -45.53 meV
       ionic 3 d auto
       hydro 2 p 1.8
       hydro 4 f 7
       ionic 3 s auto
  #  "Second tier" - improvements: -30.20 meV to -1.74 meV
  #     hydro 4 d 6.2
  #     hydro 5 g 10.8
  #     hydro 4 p 4.9
  #     hydro 5 f 10
  #     hydro 1 s 0.8
  #  "Third tier" - improvements: -1.04 meV to -0.20 meV
  #     hydro 3 d 3.9
  #     hydro 3 d 2.7
  #     hydro 5 g 12
  #     hydro 4 p 10.4
  #     hydro 5 f 12.4
  #     hydro 2 s 1.9
  #  "Fourth tier" - improvements: -0.35 meV to -0.06 meV
  #     hydro 4 d 10.4
  #     hydro 4 p 7.2
  #     hydro 4 d 10
  #     hydro 5 g 19.2
  #     hydro 4 s 12
  
  
  -----------------------------------------------------------------------
  Completed first pass over input file control.in .
  -----------------------------------------------------------------------
  
  
  -----------------------------------------------------------------------
  Parsing geometry.in (first pass over file, find array dimensions only).
  The contents of geometry.in will be repeated verbatim below
  unless switched off by setting 'verbatim_writeout .false.' .
  in the first line of geometry.in .
  -----------------------------------------------------------------------
  
  #=======================================================
  # FHI-aims file: ./geometry.in
  # Created using the Atomic Simulation Environment (ASE)
  # Tue Apr 30 03:54:50 2024
  #=======================================================
  lattice_vector -3.5016110213310010 3.5016110213310010 5.1155518485649996
  lattice_vector 3.5016110213310010 -3.5016110213310010 5.1155518485649996
  lattice_vector 3.5016110213310010 3.5016110213310010 -5.1155518485649996
  atom_frac 0.7500000000000000 0.2500000000000000 0.4999999999999999 Ba
  atom_frac 0.2500000000000000 0.7500000000000000 0.4999999999999999 Ba
  atom_frac 0.0000000000000000 -0.0000000000000000 -0.0000000000000000 Zr
  atom_frac 0.5000000000000000 0.5000000000000000 0.0000000000000000 Zr
  atom_frac 0.7500000000000000 0.7500000000000000 0.0000000000000000 S
  atom_frac 0.2500000000000001 0.2500000000000000 -0.0000000000000000 S
  atom_frac 0.8041454272640006 0.6958545727359995 0.5000000000000000 S
  atom_frac 0.1958545727359995 0.3041454272640005 0.5000000000000000 S
  atom_frac 0.3041454272640005 0.8041454272640005 0.1082908545280010 S
  atom_frac 0.6958545727359995 0.1958545727359994 0.8917091454719988 S
  
  -----------------------------------------------------------------------
  Completed first pass over input file geometry.in .
  -----------------------------------------------------------------------
  

  Basic array size parameters:
  | Number of species                 :        3
  | Number of atoms                   :       10
  | Number of lattice vectors         :        3
  | Max. basis fn. angular momentum   :        3
  | Max. atomic/ionic basis occupied n:        6
  | Max. number of basis fn. types    :        3
  | Max. radial fns per species/type  :       12
  | Max. logarithmic grid size        :     1460
  | Max. radial integration grid size :       65
  | Max. angular integration grid size:      302
  | Max. angular grid division number :        8
  | Radial grid for Hartree potential :     1460
  | Number of spin channels           :        1

------------------------------------------------------------
          Reading file control.in.
------------------------------------------------------------

  XC: Using HSE-functional with OMEGA =  0.110000E+00 <units>.
  XC: For the actual units (bohr^-1 or Angstrom^-1), see below.
  hse_unit: Unit for the HSE06 hybrid functional screening parameter set to bohr^(-1).
  Found k-point grid:         6         6         8
  Convergence accuracy of self-consistent charge density:  0.1000E-05
  Scalar relativistic treatment of kinetic energy: on-site free-atom approximation to ZORA.
  Requested output level: MD_light
  Forces will be computed.

  Reading configuration options for species Ba                  .
  | Found nuclear charge :  56.0000
  | Found atomic mass :    137.32700000000000      amu
  | Found l_max for Hartree potential  :   4
  | Found cutoff potl. onset [A], width [A], scale factor :    5.00000    1.50000    1.00000
  | Threshold for basis-dependent cutoff potential is   0.100000E-03
  | Found data for basic radial integration grid :    65 points, outermost radius =    6.500 A
  | Found multiplier for basic radial grid :   1
  | Found angular grid specification: user-specified.
  | Specified grid contains     4 separate shells.
  | Check grid settings after all constraints further below.
  | Found free-atom valence shell :  6 s   2.000
  | Found free-atom valence shell :  5 p   6.000
  | Found free-atom valence shell :  4 d  10.000
  | Found free-ion valence shell :  6 s   1.000
  | Found free-ion valence shell :  5 p   6.000
  | Found free-ion valence shell :  4 d  10.000
  | Found ionic basis function :  5 d , default cutoff radius.
  | Found ionic basis function :  4 f , default cutoff radius.
  | Found hydrogenic basis function :  3 p   2.700
  | Found hydrogenic basis function :  4 s   3.300
  Species Ba                  : Missing cutoff potential type.
  Defaulting to exp(1/x)/(1-x)^2 type cutoff potential.
  Species Ba: No 'logarithmic' tag. Using default grid for free atom:
  | Default logarithmic grid data [bohr] : 0.1000E-03 0.1000E+03 0.1012E+01
  | Will include ionic basis functions of  1.0-fold positive Ba                   ion.
  Species Ba: On-site basis accuracy parameter (for Gram-Schmidt orthonormalisation) not specified.
  Using default value basis_acc =  0.1000000E-03.
  Species Ba                  : Using default innermost maximum threshold i_radial=  2 for radial functions.
  Species Ba                  : Default cutoff onset for free atom density etc. : 0.50000000E+01 AA.
  Species Ba                  : Basic radial grid will be enhanced according to radial_multiplier =   1, to contain    65 grid points.

  Reading configuration options for species Zr                  .
  | Found nuclear charge :  40.0000
  | Found atomic mass :    91.224000000000004      amu
  | Found l_max for Hartree potential  :   4
  | Found cutoff potl. onset [A], width [A], scale factor :    3.50000    1.50000    1.00000
  | Threshold for basis-dependent cutoff potential is   0.100000E-03
  | Found data for basic radial integration grid :    58 points, outermost radius =    5.000 A
  | Found multiplier for basic radial grid :   1
  | Found angular grid specification: user-specified.
  | Specified grid contains     5 separate shells.
  | Check grid settings after all constraints further below.
  | Found free-atom valence shell :  5 s   2.000
  | Found free-atom valence shell :  4 p   6.000
  | Found free-atom valence shell :  4 d   2.000
  | Found free-ion valence shell :  5 s   1.000
  | Found free-ion valence shell :  4 p   6.000
  | Found free-ion valence shell :  4 d   1.000
  | Found hydrogenic basis function :  4 f   7.200
  | Found ionic basis function :  4 d , default cutoff radius.
  | Found ionic basis function :  5 p , default cutoff radius.
  | Found ionic basis function :  5 s , default cutoff radius.
  Species Zr                  : Missing cutoff potential type.
  Defaulting to exp(1/x)/(1-x)^2 type cutoff potential.
  Species Zr: No 'logarithmic' tag. Using default grid for free atom:
  | Default logarithmic grid data [bohr] : 0.1000E-03 0.1000E+03 0.1012E+01
  | Will include ionic basis functions of  2.0-fold positive Zr                   ion.
  Species Zr: On-site basis accuracy parameter (for Gram-Schmidt orthonormalisation) not specified.
  Using default value basis_acc =  0.1000000E-03.
  Species Zr                  : Using default innermost maximum threshold i_radial=  2 for radial functions.
  Species Zr                  : Default cutoff onset for free atom density etc. : 0.35000000E+01 AA.
  Species Zr                  : Basic radial grid will be enhanced according to radial_multiplier =   1, to contain    58 grid points.

  Reading configuration options for species S                   .
  | Found nuclear charge :  16.0000
  | Found atomic mass :    32.064999999999998      amu
  | Found l_max for Hartree potential  :   4
  | Found cutoff potl. onset [A], width [A], scale factor :    3.50000    1.50000    1.00000
  | Threshold for basis-dependent cutoff potential is   0.100000E-03
  | Found data for basic radial integration grid :    44 points, outermost radius =    5.000 A
  | Found multiplier for basic radial grid :   1
  | Found angular grid specification: user-specified.
  | Specified grid contains     4 separate shells.
  | Check grid settings after all constraints further below.
  | Found free-atom valence shell :  3 s   2.000
  | Found free-atom valence shell :  3 p   4.000
  | Found free-ion valence shell :  3 s   1.000
  | Found free-ion valence shell :  3 p   3.000
  | Found ionic basis function :  3 d , default cutoff radius.
  | Found hydrogenic basis function :  2 p   1.800
  | Found hydrogenic basis function :  4 f   7.000
  | Found ionic basis function :  3 s , default cutoff radius.
  Species S                   : Missing cutoff potential type.
  Defaulting to exp(1/x)/(1-x)^2 type cutoff potential.
  Species S : No 'logarithmic' tag. Using default grid for free atom:
  | Default logarithmic grid data [bohr] : 0.1000E-03 0.1000E+03 0.1012E+01
  | Will include ionic basis functions of  2.0-fold positive S                    ion.
  Species S : On-site basis accuracy parameter (for Gram-Schmidt orthonormalisation) not specified.
  Using default value basis_acc =  0.1000000E-03.
  Species S                   : Using default innermost maximum threshold i_radial=  2 for radial functions.
  Species S                   : Default cutoff onset for free atom density etc. : 0.35000000E+01 AA.
  Species S                   : Basic radial grid will be enhanced according to radial_multiplier =   1, to contain    44 grid points.

  Finished reading input file 'control.in'.

------------------------------------------------------------


------------------------------------------------------------
          Reading geometry description geometry.in.
------------------------------------------------------------
  | The smallest distance between any two atoms is         2.53341937 AA.
  | The first atom of this pair is atom number                      3 .
  | The second atom of this pair is atom number                    10 .
  | Wigner-Seitz cell of the first atom image           0     0     0 .
  | (The Wigner-Seitz cell of the second atom is 0 0 0  by definition.)

  Symmetry information by spglib:
  | Precision set to  0.1E-04
  | Number of Operations  : 16
  | Space group           : 140
  | International         : I4/mcm
  | Schoenflies           : D4h^18
  Input structure read successfully.
  The structure contains       10 atoms,  and a total of        288.000 electrons.

  Input geometry:
  | Unit cell:
  |       -3.50161102        3.50161102        5.11555185
  |        3.50161102       -3.50161102        5.11555185
  |        3.50161102        3.50161102       -5.11555185
  | Atomic structure:
  |       Atom                x [A]            y [A]            z [A]
  |    1: Species Ba           -0.00000000        3.50161102        2.55777592
  |    2: Species Ba            3.50161102       -0.00000000        2.55777592
  |    3: Species Zr            0.00000000        0.00000000        0.00000000
  |    4: Species Zr           -0.00000000        0.00000000        5.11555185
  |    5: Species S            -0.00000000        0.00000000        7.67332777
  |    6: Species S            -0.00000000        0.00000000        2.55777592
  |    7: Species S             1.37161306        2.12999796        5.11555185
  |    8: Species S             2.12999796        1.37161306       -0.00000000
  |    9: Species S             2.12999796       -1.37161306        5.11555185
  |   10: Species S             1.37161306        4.87322408        0.00000000

  Lattice parameters for 3D lattice (in Angstroms) :     7.119791    7.119791    7.119791
  Angle(s) between unit vectors (in degrees)       :   121.080278  121.080278   88.138871


  Quantities derived from the lattice vectors (in Angstrom^-1):
  | Reciprocal lattice vector 1:  0.000000  0.897185  0.614126
  | Reciprocal lattice vector 2:  0.897185 -0.000000  0.614126
  | Reciprocal lattice vector 3:  0.897185  0.897185 -0.000000
  | Unit cell volume                               :   0.250893E+03  Angstrom^3


  Finished reading input file 'control.in'.


------------------------------------------------------------
          Reading geometry description geometry.in.
------------------------------------------------------------

  Consistency checks for stacksize environment parameter are next.

  | Maximum stacksize for task 0: unlimited
  | Maximum stacksize for task 1: unlimited
  | Maximum stacksize for task 2: unlimited
  | Maximum stacksize for task 3: unlimited
  | Maximum stacksize for task 4: unlimited
  | Maximum stacksize for task 5: unlimited
  | Maximum stacksize for task 6: unlimited
  | Maximum stacksize for task 7: unlimited
  | Maximum stacksize for task 8: unlimited
  | Maximum stacksize for task 9: unlimited
  | Maximum stacksize for task 10: unlimited
  | Maximum stacksize for task 11: unlimited
  | Maximum stacksize for task 12: unlimited
  | Maximum stacksize for task 13: unlimited
  | Maximum stacksize for task 14: unlimited
  | Maximum stacksize for task 15: unlimited
  | Maximum stacksize for task 16: unlimited
  | Maximum stacksize for task 17: unlimited
  | Maximum stacksize for task 18: unlimited
  | Maximum stacksize for task 19: unlimited
  | Maximum stacksize for task 20: unlimited
  | Maximum stacksize for task 21: unlimited
  | Maximum stacksize for task 22: unlimited
  | Maximum stacksize for task 23: unlimited
  | Maximum stacksize for task 24: unlimited
  | Maximum stacksize for task 25: unlimited
  | Maximum stacksize for task 26: unlimited
  | Maximum stacksize for task 27: unlimited
  | Maximum stacksize for task 28: unlimited
  | Maximum stacksize for task 29: unlimited
  | Maximum stacksize for task 30: unlimited
  | Maximum stacksize for task 31: unlimited
  | Maximum stacksize for task 32: unlimited
  | Maximum stacksize for task 33: unlimited
  | Maximum stacksize for task 34: unlimited
  | Maximum stacksize for task 35: unlimited
  | Maximum stacksize for task 36: unlimited
  | Maximum stacksize for task 37: unlimited
  | Maximum stacksize for task 38: unlimited
  | Maximum stacksize for task 39: unlimited
  | Maximum stacksize for task 40: unlimited
  | Maximum stacksize for task 41: unlimited
  | Maximum stacksize for task 42: unlimited
  | Maximum stacksize for task 43: unlimited
  | Maximum stacksize for task 44: unlimited
  | Maximum stacksize for task 45: unlimited
  | Maximum stacksize for task 46: unlimited
  | Maximum stacksize for task 47: unlimited
  | Maximum stacksize for task 48: unlimited
  | Maximum stacksize for task 49: unlimited
  | Maximum stacksize for task 50: unlimited
  | Maximum stacksize for task 51: unlimited
  | Maximum stacksize for task 52: unlimited
  | Maximum stacksize for task 53: unlimited
  | Maximum stacksize for task 54: unlimited
  | Maximum stacksize for task 55: unlimited
  | Maximum stacksize for task 56: unlimited
  | Maximum stacksize for task 57: unlimited
  | Maximum stacksize for task 58: unlimited
  | Maximum stacksize for task 59: unlimited
  | Maximum stacksize for task 60: unlimited
  | Maximum stacksize for task 61: unlimited
  | Maximum stacksize for task 62: unlimited
  | Maximum stacksize for task 63: unlimited
  | Maximum stacksize for task 64: unlimited
  | Maximum stacksize for task 65: unlimited
  | Maximum stacksize for task 66: unlimited
  | Maximum stacksize for task 67: unlimited
  | Maximum stacksize for task 68: unlimited
  | Maximum stacksize for task 69: unlimited
  | Maximum stacksize for task 70: unlimited
  | Maximum stacksize for task 71: unlimited
  | Maximum stacksize for task 72: unlimited
  | Maximum stacksize for task 73: unlimited
  | Maximum stacksize for task 74: unlimited
  | Maximum stacksize for task 75: unlimited
  | Maximum stacksize for task 76: unlimited
  | Maximum stacksize for task 77: unlimited
  | Maximum stacksize for task 78: unlimited
  | Maximum stacksize for task 79: unlimited
  | Maximum stacksize for task 80: unlimited
  | Maximum stacksize for task 81: unlimited
  | Maximum stacksize for task 82: unlimited
  | Maximum stacksize for task 83: unlimited
  | Maximum stacksize for task 84: unlimited
  | Maximum stacksize for task 85: unlimited
  | Maximum stacksize for task 86: unlimited
  | Maximum stacksize for task 87: unlimited
  | Maximum stacksize for task 88: unlimited
  | Maximum stacksize for task 89: unlimited
  | Maximum stacksize for task 90: unlimited
  | Maximum stacksize for task 91: unlimited
  | Maximum stacksize for task 92: unlimited
  | Maximum stacksize for task 93: unlimited
  | Maximum stacksize for task 94: unlimited
  | Maximum stacksize for task 95: unlimited
  | Maximum stacksize for task 96: unlimited
  | Maximum stacksize for task 97: unlimited
  | Maximum stacksize for task 98: unlimited
  | Maximum stacksize for task 99: unlimited
  | Maximum stacksize for task 100: unlimited
  | Maximum stacksize for task 101: unlimited
  | Maximum stacksize for task 102: unlimited
  | Maximum stacksize for task 103: unlimited
  | Maximum stacksize for task 104: unlimited
  | Maximum stacksize for task 105: unlimited
  | Maximum stacksize for task 106: unlimited
  | Maximum stacksize for task 107: unlimited
  | Maximum stacksize for task 108: unlimited
  | Maximum stacksize for task 109: unlimited
  | Maximum stacksize for task 110: unlimited
  | Maximum stacksize for task 111: unlimited
  | Maximum stacksize for task 112: unlimited
  | Maximum stacksize for task 113: unlimited
  | Maximum stacksize for task 114: unlimited
  | Maximum stacksize for task 115: unlimited
  | Maximum stacksize for task 116: unlimited
  | Maximum stacksize for task 117: unlimited
  | Maximum stacksize for task 118: unlimited
  | Maximum stacksize for task 119: unlimited
  | Maximum stacksize for task 120: unlimited
  | Maximum stacksize for task 121: unlimited
  | Maximum stacksize for task 122: unlimited
  | Maximum stacksize for task 123: unlimited
  | Maximum stacksize for task 124: unlimited
  | Maximum stacksize for task 125: unlimited
  | Maximum stacksize for task 126: unlimited
  | Maximum stacksize for task 127: unlimited
  | Maximum stacksize for task 128: unlimited
  | Maximum stacksize for task 129: unlimited
  | Maximum stacksize for task 130: unlimited
  | Maximum stacksize for task 131: unlimited
  | Maximum stacksize for task 132: unlimited
  | Maximum stacksize for task 133: unlimited
  | Maximum stacksize for task 134: unlimited
  | Maximum stacksize for task 135: unlimited
  | Maximum stacksize for task 136: unlimited
  | Maximum stacksize for task 137: unlimited
  | Maximum stacksize for task 138: unlimited
  | Maximum stacksize for task 139: unlimited
  | Maximum stacksize for task 140: unlimited
  | Maximum stacksize for task 141: unlimited
  | Maximum stacksize for task 142: unlimited
  | Maximum stacksize for task 143: unlimited
  | Maximum stacksize for task 144: unlimited
  | Maximum stacksize for task 145: unlimited
  | Maximum stacksize for task 146: unlimited
  | Maximum stacksize for task 147: unlimited
  | Maximum stacksize for task 148: unlimited
  | Maximum stacksize for task 149: unlimited
  | Maximum stacksize for task 150: unlimited
  | Maximum stacksize for task 151: unlimited
  | Maximum stacksize for task 152: unlimited
  | Maximum stacksize for task 153: unlimited
  | Maximum stacksize for task 154: unlimited
  | Maximum stacksize for task 155: unlimited
  | Maximum stacksize for task 156: unlimited
  | Maximum stacksize for task 157: unlimited
  | Maximum stacksize for task 158: unlimited
  | Maximum stacksize for task 159: unlimited
  | Maximum stacksize for task 160: unlimited
  | Maximum stacksize for task 161: unlimited
  | Maximum stacksize for task 162: unlimited
  | Maximum stacksize for task 163: unlimited
  | Maximum stacksize for task 164: unlimited
  | Maximum stacksize for task 165: unlimited
  | Maximum stacksize for task 166: unlimited
  | Maximum stacksize for task 167: unlimited
  | Maximum stacksize for task 168: unlimited
  | Maximum stacksize for task 169: unlimited
  | Maximum stacksize for task 170: unlimited
  | Maximum stacksize for task 171: unlimited
  | Maximum stacksize for task 172: unlimited
  | Maximum stacksize for task 173: unlimited
  | Maximum stacksize for task 174: unlimited
  | Maximum stacksize for task 175: unlimited
  | Maximum stacksize for task 176: unlimited
  | Maximum stacksize for task 177: unlimited
  | Maximum stacksize for task 178: unlimited
  | Maximum stacksize for task 179: unlimited
  | Maximum stacksize for task 180: unlimited
  | Maximum stacksize for task 181: unlimited
  | Maximum stacksize for task 182: unlimited
  | Maximum stacksize for task 183: unlimited
  | Maximum stacksize for task 184: unlimited
  | Maximum stacksize for task 185: unlimited
  | Maximum stacksize for task 186: unlimited
  | Maximum stacksize for task 187: unlimited
  | Maximum stacksize for task 188: unlimited
  | Maximum stacksize for task 189: unlimited
  | Maximum stacksize for task 190: unlimited
  | Maximum stacksize for task 191: unlimited
  | Maximum stacksize for task 192: unlimited
  | Maximum stacksize for task 193: unlimited
  | Maximum stacksize for task 194: unlimited
  | Maximum stacksize for task 195: unlimited
  | Maximum stacksize for task 196: unlimited
  | Maximum stacksize for task 197: unlimited
  | Maximum stacksize for task 198: unlimited
  | Maximum stacksize for task 199: unlimited
  | Maximum stacksize for task 200: unlimited
  | Maximum stacksize for task 201: unlimited
  | Maximum stacksize for task 202: unlimited
  | Maximum stacksize for task 203: unlimited
  | Maximum stacksize for task 204: unlimited
  | Maximum stacksize for task 205: unlimited
  | Maximum stacksize for task 206: unlimited
  | Maximum stacksize for task 207: unlimited
  | Maximum stacksize for task 208: unlimited
  | Maximum stacksize for task 209: unlimited
  | Maximum stacksize for task 210: unlimited
  | Maximum stacksize for task 211: unlimited
[...]
 |  0.93E-01 |   0.53E+02 |  0.39E+00 |             . |        3.766 s |        3.734 s
  SCF    5 : -0.26E-13 shmsizes      366336    19120584       58942       73728       18432       11880
 Time for Fock matrix mixing  0.20774834300027578     
 |  0.13E+00 |  -0.14E+02 |  0.46E+00 |             . |        3.734 s |        3.702 s
  SCF    6 : -0.81E-13 shmsizes      366336    19120584       58942       73728       18432       11880
 Time for Fock matrix mixing  0.21248034300015206     
 |  0.72E-01 |  -0.22E+02 |  0.17E+00 |             . |        3.772 s |        3.743 s
  SCF    7 : -0.71E-13 shmsizes      366336    19120584       58942       73728       18432       11880
 Time for Fock matrix mixing  0.21689030499965156     
 |  0.45E-01 |   0.91E+00 | -0.38E-01 |             . |        3.789 s |        3.764 s
  SCF    8 : -0.33E-13 shmsizes      366336    19120584       58942       73728       18432       11880
 Time for Fock matrix mixing  0.22209517000010237     
 |  0.42E-01 |   0.13E+00 | -0.60E-01 |             . |        3.807 s |        3.772 s
  SCF    9 : -0.32E-13 shmsizes      366336    19120584       58942       73728       18432       11880
 Time for Fock matrix mixing  0.22453777200007607     
 |  0.36E-01 |   0.44E+00 | -0.29E-01 |             . |        3.820 s |        3.783 s
  SCF   10 : -0.40E-13 shmsizes      366336    19120584       58942       73728       18432       11880
 Time for Fock matrix mixing  0.22472000099969591     
 |  0.34E-01 |   0.32E+01 | -0.43E+00 |             . |        3.814 s |        3.782 s
  SCF   11 : -0.44E-13 shmsizes      366336    19120584       58942       73728       18432       11880
 Time for Fock matrix mixing  0.22697584499974255     
 |  0.11E-02 |  -0.42E+00 | -0.66E-02 |             . |        3.834 s |        3.799 s
  SCF   12 :  0.50E-14 shmsizes      366336    19120584       58942       73728       18432       11880
 Time for Fock matrix mixing  0.22676566800009823     
 |  0.40E-03 |  -0.75E+00 |  0.12E-02 |             . |        3.853 s |        3.822 s
  SCF   13 :  0.18E-13 shmsizes      366336    19120584       58942       73728       18432       11880
 Time for Fock matrix mixing  0.22387068300031387     
 |  0.28E-03 |   0.30E+00 | -0.11E-02 |             . |        3.841 s |        3.802 s
  SCF   14 : -0.55E-13 shmsizes      366336    19120584       58942       73728       18432       11880
 Time for Fock matrix mixing  0.22427272100003393     
 |  0.12E-03 |  -0.94E-01 |  0.28E-03 |             . |        3.834 s |        3.801 s
  SCF   15 :  0.17E-13 shmsizes      366336    19120584       58942       73728       18432       11880
 Time for Fock matrix mixing  0.22460231700006261     
 |  0.16E-04 |   0.12E-01 |  0.15E-04 |             . |        3.837 s |        3.801 s
  SCF   16 :  0.31E-13 shmsizes      366336    19120584       58942       73728       18432       11880
 Time for Fock matrix mixing  0.22393122300036339     
 |  0.10E-04 |   0.52E-02 | -0.23E-04 |             . |        3.833 s |        3.802 s
  SCF   17 :  0.27E-13 shmsizes      366336    19120584       58942       73728       18432       11880
 Time for Fock matrix mixing  0.22621742299998004     
 |  0.69E-05 |   0.14E-02 | -0.11E-03 |             . |        3.834 s |        3.802 s
  SCF   18 :  0.22E-13 shmsizes      366336    19120584       58942       73728       18432       11880
 Time for Fock matrix mixing  0.22423779300015667     
 |  0.31E-05 |   0.30E-03 | -0.11E-04 |             . |        3.839 s |        3.808 s
  SCF   19 : -0.39E-13 shmsizes      366336    19120584       58942       73728       18432       11880
 Time for Fock matrix mixing  0.22373814399998082     
 |  0.20E-05 |  -0.17E-02 |  0.11E-04 |             . |        3.849 s |        3.817 s
  SCF   20 :  0.83E-14 shmsizes      366336    19120584       58942       73728       18432       11880
 Time for Fock matrix mixing  0.22642156300025817     
 |  0.22E-06 |  -0.68E-04 |  0.15E-05 |             . |        3.844 s |        3.814 s
  SCF   21 : -0.50E-13 shmsizes      366336    19120584       58942       73728       18432       11880
 Time for Fock matrix mixing  0.22388203599984990     
 |  0.15E-06 |  -0.58E-04 |  0.65E-06 |      0.87E+00 |        3.960 s |        3.906 s
  SCF   22 : -0.71E-14 shmsizes      366336    19120584       58942       73728       18432       11880
 Time for Fock matrix mixing  0.22403693000023850     
 |  0.93E-07 |   0.14E-05 | -0.50E-06 |      0.15E-05 |        8.139 s |        8.084 s

  Total energy components:
  | Sum of eigenvalues            :      -16220.18223137 Ha     -441373.61535791 eV
  | XC energy correction          :        -405.97985075 Ha      -11047.27381793 eV
  | XC potential correction       :         771.14349192 Ha       20983.88206318 eV
  | Free-atom electrostatic energy:      -10356.51736934 Ha     -281815.17621797 eV
  | Hartree energy correction     :           3.09973767 Ha          84.34815364 eV
  | Entropy correction            :          -0.00000000 Ha          -0.00000000 eV
  | ---------------------------
  | Total energy                  :      -26208.43622187 Ha     -713167.83517700 eV
  | Total energy, T -> 0          :      -26208.43622187 Ha     -713167.83517700 eV  <-- do not rely on this value for anything but (periodic) metals
  | Electronic free energy        :      -26208.43622187 Ha     -713167.83517700 eV

  Derived energy quantities:
  | Kinetic energy                :       27355.71613432 Ha      744386.91000371 eV
  | Electrostatic energy          :      -52781.77169846 Ha    -1436265.08427813 eV
  | Energy correction for multipole
  | error in Hartree potential    :           0.00512948 Ha           0.13958021 eV
  | Sum of eigenvalues per atom                           :      -44137.36153579 eV
  | Total energy (T->0) per atom                          :      -71316.78351770 eV  <-- do not rely on this value for anything but (periodic) metals
  | Electronic free energy per atom                       :      -71316.78351770 eV
  What follows are estimated values for band gap, HOMO, LUMO, etc.
  | They are estimated on a discrete k-point grid and not necessarily exact.
  | For converged numbers, create a DOS and/or band structure plot on a denser k-grid.

  Highest occupied state (VBM) at     -7.63395965 eV (relative to internal zero)
  | Occupation number:      1.99999998
  | K-point:       4 at    0.000000    0.000000    0.375000 (in units of recip. lattice)

  Lowest unoccupied state (CBM) at    -5.83678130 eV (relative to internal zero)
  | Occupation number:      0.00000000
  | K-point:     209 at    0.666667    0.333333    0.000000 (in units of recip. lattice)

  ESTIMATED overall HOMO-LUMO gap:      1.79717836 eV between HOMO at k-point 4 and LUMO at k-point 209
  | This appears to be an indirect band gap.
  | Smallest direct gap :      1.79744388 eV for k_point 129 at    0.333333    0.666667    0.000000 (in units of recip. lattice)
  The gap value is above 0.2 eV. Unless you are using a very sparse k-point grid,
  this system is most likely an insulator or a semiconductor.

  | Chemical Potential                          :    -7.59418100 eV
  | Note that, for insulating systems, the printed 'chemical potential' value is not uniquely defined.
  | It can be anywhere in the energy gap, as long as it correctly separates occupied and unoccupied states.
  | In systems with a gap, the physically relevant chemical potential is the VBM or HOMO.

  Self-consistency cycle converged.

  +-------------------------------------------------------------------+
  |              Analytical stress tensor - Symmetrized               |
  |                  Cartesian components [eV/A**3]                   |
  +-------------------------------------------------------------------+
  |                x                y                z                |
  |                                                                   |
  |  x        -0.00000061       0.00000076      -0.00000013           |
  |  y         0.00000076      -0.00000031      -0.00000014           |
  |  z        -0.00000013      -0.00000014       0.00000041           |
  |                                                                   |
  |  Pressure:       0.00000017   [eV/A**3]                           |
  |                                                                   |
  +-------------------------------------------------------------------+
  Removing unitary transformations (pure translations, rotations) from forces on atoms.
  Atomic forces before filtering:
  | Net force on center of mass :  -0.315044E-04  0.324107E-04  0.616403E-05 eV/A
  Atomic forces after filtering:
  | Net force on center of mass :   0.000000E+00 -0.272226E-20  0.214803E-20 eV/A

  Energy and forces in a compact form:
  | Total energy uncorrected      :         -0.713167835177002E+06 eV
  | Total energy corrected        :         -0.713167835177002E+06 eV  <-- do not rely on this value for anything but (periodic) metals
  | Electronic free energy        :         -0.713167835177002E+06 eV
  Total atomic forces (unitary forces cleaned) [eV/Ang]:
  |    1         -0.245352856187482E-05          0.384894821179324E-05         -0.192593286302173E-04
  |    2         -0.170280323013680E-04          0.180410318741979E-04          0.250897933085248E-04
  |    3          0.320223233578780E-05         -0.344082388869568E-05          0.568648258265320E-06
  |    4         -0.255980257028567E-05          0.876301592801737E-06         -0.270591464634069E-05
  |    5          0.146941267077840E-05         -0.157643035028203E-05         -0.662665455082698E-06
  |    6          0.491526700417483E-05         -0.502434243805918E-05         -0.568713176181108E-06
  |    7         -0.334837105393828E-05         -0.146633999718584E-04         -0.773348376591638E-06
  |    8          0.927414243983129E-05          0.834419715543732E-05         -0.203861047166322E-06
  |    9          0.245185059941048E-04          0.129814350285101E-05         -0.142349675746969E-05
  |   10         -0.179898259572103E-04         -0.770362568818588E-05         -0.611134777406650E-07


------------------------------------------------------------------------------
  Final output of selected total energy values:

  The following output summarizes some interesting total energy values
  at the end of a run (AFTER all relaxation, molecular dynamics, etc.).

  | Total energy of the DFT / Hartree-Fock s.c.f. calculation      :        -713167.835177002 eV
  | Final zero-broadening corrected energy (caution - metals only) :        -713167.835177002 eV
  | For reference only, the value of 1 Hartree used in FHI-aims is :             27.211384500 eV
  | For reference only, the overall average (free atom contribution
  | + realspace contribution) of the electrostatic potential after
  | s.c.f. convergence is                                          :            -15.884935236 eV

  Before relying on these values, please be sure to understand exactly which
  total energy value is referred to by a given number. Different objects may
  all carry the same name 'total energy'. Definitions:

  Total energy of the DFT / Hartree-Fock s.c.f. calculation:
  | Note that this energy does not include ANY quantities calculated after the
  | s.c.f. cycle, in particular not ANY RPA, MP2, etc. many-body perturbation terms.

  Final zero-broadening corrected energy:
  | For metallic systems only, a broadening of the occupation numbers at the Fermi
  | level can be extrapolated back to zero broadening by an electron-gas inspired
  | formula. For all systems that are not real metals, this value can be
  | meaningless and should be avoided.

------------------------------------------------------------------------------
  Methods described in the following list of references were used in this FHI-aims run.
  If you publish the results, please make sure to cite these reference if they apply.
  FHI-aims is an academic code, and for our developers (often, Ph.D. students
  and postdocs), scientific credit in the community is essential.
  Thank you for helping us!

  For any use of FHI-aims, please cite:

    Volker Blum, Ralf Gehrke, Felix Hanke, Paula Havu, Ville Havu,
    Xinguo Ren, Karsten Reuter, and Matthias Scheffler
    'Ab initio molecular simulations with numeric atom-centered orbitals'
    Computer Physics Communications 180, 2175-2196 (2009)
    http://doi.org/10.1016/j.cpc.2009.06.022


  For the analytical stress tensor used in your run, please cite:

    Franz Knuth, Christian Carbogno, Viktor Atalla, Volker Blum, Matthias Scheffler
    'All-electron formalism for total energy strain derivatives and
    stress tensor components for numeric atom-centered orbitals'
    Computer Physics Communications 190, 33-50 (2015).
    http://doi.org/10.1016/j.cpc.2015.01.003


  For Hartree-Fock, hybrid functionals, or many-body perturbation theory used in your run, please cite:

    Xinguo Ren, Patrick Rinke, Volker Blum, Juergen Wieferink, Alex Tkatchenko,
    Andrea Sanfilippo, Karsten Reuter, and Matthias Scheffler,
    'Resolution-of-identity approach to Hartree-Fock, hybrid density functionals,
    RPA, MP2, and GW with numeric atom-centered orbital basis functions'
    New Journal of Physics 14, 053020 (2012).
    http://doi.org/10.1088/1367-2630/14/5/053020


  The provided symmetry information was generated with SPGlib:

    Atsushi Togo, Yusuke Seto, Dimitar Pashov
    SPGlib 1.7.3 obtained from http://spglib.sourceforge.net
    Copyright (C) 2008 Atsushi Togo


  The ELSI infrastructure was used in your run to solve the Kohn-Sham electronic structure.
  Please check out http://elsi-interchange.org to learn more.
  If scalability is important for your project, please acknowledge ELSI by citing:

    V. W-z. Yu, F. Corsetti, A. Garcia, W. P. Huhn, M. Jacquelin, W. Jia,
    B. Lange, L. Lin, J. Lu, W. Mi, A. Seifitokaldani, A. Vazquez-Mayagoitia,
    C. Yang, H. Yang, and V. Blum
    'ELSI: A unified software interface for Kohn-Sham electronic structure solvers'
    Computer Physics Communications 222, 267-285 (2018).
    http://doi.org/10.1016/j.cpc.2017.09.007


  For the real-space grid partitioning and parallelization used in this calculation, please cite:

    Ville Havu, Volker Blum, Paula Havu, and Matthias Scheffler,
    'Efficient O(N) integration for all-electron electronic structure calculation'
    'using numerically tabulated basis functions'
    Journal of Computational Physics 228, 8367-8379 (2009).
    http://doi.org/10.1016/j.jcp.2009.08.008


  The high-level electronic structure method used in your calculation
  employed our efficient localized resolution of identity for the Coulomb operator.
  Some calculations, especially large-scale hybrid density functional theory,
  are only possible thanks to this development. For this feature, please cite:

    Arvid Ihrig, Juergen Wieferink, Igor Ying Zhang, Matti Ropo, Xinguo Ren,
    Patrick Rinke, Matthias Scheffler, and Volker Blum,
    'Accurate localized resolution of identity approach for linear-scaling
    hybrid density functionals and for many-body perturbation theory'
    New Journal of Physics 117, 093020 (2015).
    http://doi.org/10.1088/1367-2630/17/9/093020

  Of course, there are many other important community references, e.g., those cited in the
  above references. Our list is limited to references that describe implementations in the
  FHI-aims code. The reason is purely practical (length of this list) - please credit others as well.

 * A warning was issued further up regarding the accuracy of onsite integrals.
   An integral with a negative eigenvalue was among the flagged integrals.
   In most standard situations, this warning is probably harmless.
   If needed, this can be verified by adjusting the radial_multiplier flag.

 *********************************************************************
   Your are running FHI-aims on many cores. To achieve optimal
   performance for your particular architecture, it might be necessary
   to tune the following compilation and calculation settings:
    * Choosing the right Scalapack and MPI Libraries for your
       architecture is essential. If in doubt, refer to the
       documentation or the sysadmin of your supercomputer.
    * Please review our documentation of Makefile choices, particularly
       for ELPA, in the manual.
    * Some of the following FHI-aims keywords or combination thereof
       may be helpful:
        - FHI-aims setting: use_local_index .true.
        - FHI-aims setting: load_balancing .true.
        - FHI-aims setting: use_alltoall .false.
   Be mindful that the usefulness of these keywords can depend on your
   actual run and on the actual computer you are using. Please check
   their description in the manual and perform specific benchmarks to
   determine what is optimal for your computer. More detailed
   information and examples can be found at:
 http://aimsclub.fhi-berlin.mpg.de/wiki/index.php/Large_scale_settings
 *********************************************************************

------------------------------------------------------------
          Leaving FHI-aims.
          Date     :  20240430, Time     :  035738.495

          Computational steps:
          | Number of self-consistency cycles          :           22
          | Number of SCF (re)initializations          :            1

          Detailed time accounting                     :  max(cpu_time)    wall_clock(cpu1)
          | Total time                                  :      158.496 s         159.412 s
          | Preparation time                            :        0.779 s           0.777 s
          | Boundary condition initalization            :        0.141 s           0.141 s
          | Grid partitioning                           :        0.069 s           0.068 s
          | Preloading free-atom quantities on grid     :        0.022 s           0.023 s
          | Free-atom superposition energy              :        0.003 s           0.002 s
          | Total time for integrations                 :        0.815 s           0.814 s
          | Product basis setup: Total time             :       35.202 s          35.482 s
          | Total time evaluating exchange matrix       :      114.909 s         114.193 s
          | Total time for solution of K.-S. equations  :        1.909 s           1.909 s
          | Total time for density & force components   :        2.106 s           2.066 s
          | Total time for mixing                       :        0.850 s           0.102 s
          | Total time for Hartree multipole update     :        0.064 s           0.070 s
          | Total time for Hartree multipole sum        :        0.750 s           0.751 s
          | Total time for total energy evaluation      :        0.071 s           0.071 s
          | Total time NSC force correction             :        0.089 s           0.089 s
          | Total time for scaled ZORA corrections      :        0.000 s           0.000 s

          Partial memory accounting:
          | Residual value for overall tracked memory usage across tasks:     0.000000 MB (should be 0.000000 MB)
          | Peak values for overall tracked memory usage:
          |   Minimum:     2237.879 MB (on task  643 after allocating ovlp3fn_nosplit)
          |   Maximum:     4542.260 MB (on task  488 after allocating ovlp3fn_nosplit)
          |   Average:     3344.154 MB
          | Largest tracked array allocation:
          |   Minimum:      221.265 MB (ovlp3fn_nosplit on task  632)
          |   Maximum:      448.242 MB (ovlp3fn_nosplit on task  478)
          |   Average:      328.951 MB
          Note:  These values currently only include a subset of arrays which are explicitly tracked.
          The "true" memory usage will be greater.

          Have a nice day.
------------------------------------------------------------
