 -6.8580916e-06   2.3425431e-10
  1.2958892e-05   7.9328210e-08
  1.6390422e-04   3.9249766e-08
 -4.9891746e-06   6.7185550e-09
  4.4243272e-05   3.2479702e-06
  1.5979567e-05   7.8868737e-07
  2.9676314e-06   1.1037748e-13
  2.1334843e-05   2.6721808e-12
  9.8219634e-06   3.3259996e-12
  2.6551120e-07   1.6386377e-09
  6.7681326e-06   1.0500625e-07
 -2.3071602e-06   4.2254072e-11
 -2.4927679e-06   8.6461309e-09
  5.2537034e-06   8.9416699e-07
 -2.1166628e-05   2.7079641e-06
  2.1641843e-05   2.5956285e-07
  4.7030175e-05   3.8359715e-07
 -2.4540971e-06   2.6859144e-07
  9.7083112e-06   6.6408245e-07
 -1.6328261e-06   3.0592501e-11
 -7.3018264e-06   5.8285178e-07
 -3.5583012e-06   2.2621198e-13
 -2.3476383e-05   6.4140687e-10
  1.0289681e-05   1.8145852e-06
 -3.1040979e-06   2.1330207e-11
 -5.3344511e-06   2.8591447e-08
 -8.6268505e-05   1.3086430e-08
  5.9017798e-06   1.0349952e-09
 -1.1712409e-05   2.8387825e-11
  2.2332366e-04   8.8387422e-11
  5.5554390e-01   2.3324997e-10
 -1.7896658e-05   3.0039957e-13
 -1.8211335e-01   5.4324262e-12
 -1.1535806e-01   7.3651057e-10
 -1.8115242e-01   4.3567628e-12
  1.0442819e-06   3.4685291e-10
  1.7354986e-06   7.7888047e-14
 -1.9088444e-05   7.7668734e-14
 -4.9572624e-05   9.8332748e-12
 -3.8378787e-01   1.7332157e-08
 -8.0850787e-06   1.0842679e-09
 -9.3002745e-07   7.4345440e-11
 -4.6037762e-06   6.4846589e-10
  6.7376990e-05   1.4077954e-10
  6.3745052e-02   3.4126249e-10
 -3.5343965e-05   5.2664623e-10
 -6.8288011e-07   2.0429515e-12
  2.7695363e-05   1.6541300e-08
  1.1065289e-04   5.1476975e-11
  2.2102231e-05   2.1305670e-10
  3.3550239e-07   1.5229707e-09
 -1.1086084e-05   2.3464288e-11
  2.0032341e-07   1.5165608e-07
  6.3611224e-06   3.0637398e-08
  1.1191731e-01   2.5929864e-15
 -4.4892095e-06   3.0835363e-07
  5.3917588e-06   4.6428961e-10
 -3.9843970e-05   1.4946785e-06
 -7.8934412e-05   7.7661917e-14
  2.6855964e-06   4.1384294e-07
  7.4023446e-05   1.2861340e-10
  4.4474255e-06   3.7536085e-11
 -6.5325153e-06   2.2340732e-10
 -1.4856879e-06   3.5676326e-09
 -8.8094921e-06   1.3022802e-07
  2.0130225e-05   3.6639915e-06
 -9.5389114e-06   2.8676325e-07
 -9.7164429e-06   4.7638418e-11
 -1.7814020e-05   7.4750028e-10
 -1.4796145e-05   5.1450377e-09
 -3.2760363e-05   2.0902139e-07
  1.7404816e-06   1.0197011e-11
 -1.9850831e-06   8.7773920e-08
 -3.4230015e-06   3.1248112e-12
  6.0614625e-06   1.9739521e-09
  4.2447397e-07   4.0236764e-06
 -3.7069331e-05   2.5578598e-07
  8.5477122e-06   6.1403034e-09
 -1.3010615e-05   1.9830066e-13
 -3.9132820e-07   2.0069066e-09
 -4.0968793e-05   1.9066077e-06
  1.9873672e-05   5.4364633e-09
  1.6316526e-05   7.2740676e-07
 -1.1252936e-05   1.9175123e-07
 -2.9223165e-06   2.3897945e-10
 -5.1146358e-06   2.7897015e-10
 -5.7284711e-07   4.7551816e-07
  5.7348154e-07   1.6221983e-10
  1.8567878e-06   2.8584740e-10
  2.6616747e-06   2.6695702e-06
  1.3927687e+00   8.2326868e-10
  1.1736767e+00   1.7537800e-09
 -1.4235399e+00   1.3645817e-08
 -5.7878084e-03   3.8704234e-10
 -2.6194155e-01   2.3977160e-09
  2.8440176e-04   1.5891341e-12
 -1.5959997e-05   2.1832759e-10
 -1.5010634e-04   1.0631420e-13
 -2.4762583e-01   1.5269971e-09
 -6.8895203e-01   2.2509763e-09
 -1.6324153e-05   8.4815462e-14
  1.1040711e-05   8.8555100e-07
 -6.2567451e-05   2.2882912e-08
  3.8202470e-05   3.8606417e-11
  2.5152120e-01   1.6132345e-11
 -5.9001548e-05   8.7763513e-10
 -4.1386643e-06   1.1272732e-07
  3.1525236e-05   1.0630848e-10
  7.5749509e-02   2.9692234e-12
  8.0071963e-02   1.5024238e-12
  1.8464244e-04   9.4900026e-16
 -3.1883468e-07   1.5537900e-08
  1.9779856e-05   2.6106985e-09
  5.1161882e-02   7.7933634e-13
  3.7049556e-01   8.3361477e-12
 -1.6348766e-05   1.4334131e-08
 -3.4561337e-05   2.2069373e-09
  5.7919501e-06   1.7635676e-08
  9.3797644e-06   7.8363946e-08
 -6.3920411e-06   5.8385886e-11
  1.4376501e-06   2.0330290e-11
 -8.9062532e-06   6.3997436e-12
  5.1848392e-04   6.1159895e-09
  4.4877521e-05   1.9156098e-10
  2.3492472e-04   6.8426242e-10
 -1.7993101e-05   1.4099199e-11
 -1.2739909e-05   4.7282884e-09
  4.9503418e-05   1.4472996e-11
  1.8293879e-04   1.4190943e-08
  2.5273426e-04   2.2128651e-11
  5.3182193e-06   2.1987809e-10
  2.3078204e-05   1.0876901e-06
 -1.3014437e-06   7.0025567e-07
  2.2918168e-05   2.9867642e-09
  4.6917680e-04   3.0400578e-08
 -5.7565362e-06   3.1821637e-10
  1.2711771e-06   1.3373604e-10
 -3.2464609e-06   5.3629363e-09
 -1.0819575e-05   3.8507943e-11
 -3.9519702e-05   1.6468914e-12
  1.8174418e-05   2.8017636e-08
  6.1508081e-06   9.2922621e-13
 -1.1201237e-06   1.8371255e-08
 -9.6731565e-06   2.6904127e-08
 -2.7467227e-05   9.7818943e-14
  1.1299419e-05   1.9534535e-10
  2.2542838e-06   9.3156172e-10
 -4.6445468e-05   4.3758708e-10
 -1.3584152e-05   2.9958769e-10
  1.4749950e-05   3.2889918e-08
 -5.0015999e-05   2.5869433e-09
 -3.0596167e-04   1.2345142e-12
  2.9925464e-04   8.3796685e-11
  1.5164918e-04   2.9407327e-11
  6.9190800e-04   1.0111734e-09
 -3.3466455e-05   4.1631851e-10
  1.2354031e-05   2.8119169e-12
 -2.8256857e-06   4.5610515e-09
  2.2199306e-04   7.3933087e-10
 -2.3608962e-08   9.9075210e-09
 -2.2202146e-06   1.7513454e-09
  8.5611555e-06   6.4057957e-07
 -5.2914620e-06   3.8033510e-11
  3.6234846e-06   7.6652545e-11
 -2.5803511e-05   1.5292680e-09
  5.6233985e-06   3.5648267e-09
  1.2362038e-05   9.4423989e-09
  4.6183809e-06   3.2458397e-10
 -9.4272718e-06   2.6759192e-10
  1.4088836e-05   1.1348707e-13
 -3.5362982e-04   2.1839564e-12
 -1.1754017e-05   1.1138928e-07
 -7.3593765e-06   1.5902800e-09
 -4.1531403e-06   1.1746399e-09
 -1.9106561e-04   1.2399476e-10
 -1.7869397e-04   5.0530069e-08
  4.1138351e-06   7.9031253e-08
 -5.7266675e-07   3.3060863e-07
  1.5524423e-05   3.7559270e-10
 -4.7250633e-06   8.4486902e-07
 -7.9758847e-01   8.9497481e-14
 -5.9667137e-03   5.8335346e-12
  5.0429714e-01   7.7170412e-09
  7.6512201e-04   7.8926655e-13
  2.7636801e-05   5.4007888e-12
 -1.3794466e-03   4.3134429e-09
 -1.6404421e-05   7.6823417e-06
 -6.7991000e-06   1.2603829e-12
  1.8537700e-03   8.6308662e-11
  9.0067405e-03   2.6249634e-09
  1.6722761e-06   6.2792022e-11
  2.2606177e-05   6.3273212e-08
 -1.4125071e-06   1.7169957e-09
  6.1184925e-05   1.5894572e-09
 -1.3360893e-04   2.4344045e-09
  5.1597226e-07   1.0981882e-09
 -1.4030283e-06   8.8964313e-12
  2.7504575e-05   2.1713507e-07
 -2.0489277e-04   7.4948543e-13
 -2.4278681e-06   1.4378897e-09
 -5.8217233e-07   1.6246412e-08
  1.7279681e-05   1.9621313e-08
  3.7548464e-06   4.3077385e-11
 -1.4737304e-06   3.2626726e-08
 -2.1274382e-06   3.1976564e-11
 -2.5211384e-05   3.3496931e-07
 -6.6418012e-05   2.0375462e-06
  1.9705744e-06   1.8761867e-08
  6.9469081e-07   1.0210682e-08
 -8.2730376e-06   1.1265701e-07
 -1.4143629e-01   2.1624626e-10
 -1.8714931e-05   3.2706606e-09
  3.1171402e-01   1.4182041e-11
  1.7182421e-05   1.8090001e-13
  9.4919033e-06   3.9339608e-14
 -1.1310694e-05   1.6077860e-10
  1.8334344e-05   9.8358627e-11
 -4.4820163e-06   6.1635518e-07
 -7.6617525e-06   2.4696101e-08
  1.5812044e-05   5.8677581e-12
  1.3223806e-05   7.6138754e-08
 -5.8841651e-06   2.6961766e-09
  9.3797287e-05   1.8089526e-08
 -6.8799827e-06   9.3294936e-13
  2.6316768e-05   3.1912741e-12
 -3.8934659e-06   4.1123435e-10
  7.8400690e-04   2.2469851e-11
  1.3283568e-07   4.9286768e-13
 -7.6925717e-06   1.0165500e-08
 -1.8466292e-06   2.9932754e-09
 -1.7244634e-04   1.4097745e-07
 -3.7802283e-06   4.3601142e-07
 -9.1814627e-06   2.0870260e-11
 -9.8939772e-06   7.7899137e-10
 -2.1930120e-05   4.4464517e-09
  1.6099864e-07   8.9028047e-12
  2.0681086e-06   2.2369706e-08
  6.5390650e-06   5.0843084e-07
  4.4499251e-05   2.0500186e-14
 -5.4826805e-06   1.2556844e-08
  2.0003336e-05   5.6295184e-11
  1.8178832e-06   5.9832383e-10
 -1.5905602e-01   1.4707133e-11
 -3.3223796e-06   1.2734321e-11
  1.5685566e-06   3.3357043e-12
  5.6030888e-07   1.0031766e-11
 -1.5942982e-05   3.7301362e-10
 -2.0659081e-06   1.6164344e-11
  3.8551170e-06   2.2596951e-09
 -1.1131901e-05   2.8602845e-09
  1.2195522e-05   1.1053154e-06
 -9.3554434e-07   5.7961461e-07
 -4.6814347e-07   1.9139377e-07
 -8.5103557e-06   8.1616713e-10
 -7.0506746e-07   5.1195048e-08
 -1.6148093e-06   5.4914684e-10
 -5.3520716e-06   6.4362786e-11
 -4.1079902e-06   7.5521381e-11
  5.2440187e-06   1.3911901e-09
  1.2978226e-05   6.8222881e-09
  6.8307045e-06   9.8254282e-07
  6.1550270e-07   4.1843379e-08
 -3.0066947e-05   1.9265767e-06
  1.6035376e-05   1.3622463e-07
  4.5245784e-04   1.2321502e-13
 -2.3167888e-05   2.8780516e-06
 -1.3795560e-05   1.2716750e-11
 -2.7050950e-05   4.2503542e-11
 -4.2093011e-06   1.2895464e-07
  2.7169724e-06   3.3983081e-09
 -8.4637242e-05   3.2690294e-12
  7.0885108e-05   2.1841988e-11
 -2.7997339e-01   1.9641067e-09
 -3.0118380e-02   2.3248102e-14
 -9.5229078e-04   5.0603667e-11
 -8.9749838e-06   2.6513227e-09
 -2.9681503e-06   1.6678529e-06
  5.3373360e-06   2.7482786e-08
 -9.7442830e-07   5.8837157e-10
 -7.5712419e-06   1.7904064e-14
  1.1246213e-05   1.0910998e-08
  4.7879048e-06   2.3914111e-09
 -1.6489748e-05   2.1285062e-07
  9.3783337e-06   5.1325753e-11
  1.7079406e-05   6.0728693e-11
 -3.5518053e-05   5.6225353e-13
  1.0157662e-05   2.3482130e-12
  5.0193768e-07   5.7913024e-08
  4.5107743e-05   4.9145774e-12
  5.4296089e-04   9.3621928e-09
  4.8437327e-05   2.2284736e-08
 -1.0861941e-05   1.5982008e-07
 -3.0641361e-06   1.6432584e-06
  4.9430854e-04   3.5354524e-09
  3.6334742e-02   6.2504335e-11
 -1.6142500e-05   8.6044719e-07
 -6.1097066e-06   2.7300757e-07
 -2.6992780e-07   1.5004098e-09
  2.3572004e-06   7.5409785e-09
 -1.5625104e-05   1.9060087e-07
 -6.0191172e-01   4.5837712e-11
 -7.8900013e-04   4.3320420e-11
  4.4198322e-01   8.1901437e-09
  4.1187164e-01   3.7860577e-14
  5.0424576e-01   5.4880001e-10
 -2.2973990e-01   8.2326375e-11
  5.6866920e-06   8.2149306e-08
  1.8330073e-06   1.6138146e-09
  1.4199199e-01   3.9529456e-12
 -1.8200197e+00   5.1146964e-10
  2.1490509e-06   6.3256865e-13
  5.1199081e-06   6.8287958e-09
 -5.8269270e-06   8.2755029e-09
  2.6341455e-04   1.2116125e-11
 -3.6888486e-03   1.4961009e-10
  8.7756445e-05   3.2294415e-14
 -1.5376916e-05   3.1550567e-06
  1.4027105e-06   1.9820869e-08
 -4.1380426e-05   4.4196555e-10
 -4.0408455e-02   2.2144905e-13
 -8.0631673e-03   1.5315195e-09
 -9.2880182e-06   1.3030630e-13
  7.2961016e-06   2.4802349e-08
 -7.4034911e-03   6.5120069e-11
 -3.2805821e-01   1.0919687e-09
 -5.1836550e-06   5.4986322e-07
  1.2863623e-05   3.3326984e-08
 -2.2707620e-06   9.9935038e-10
 -3.9736956e-06   8.2718202e-14
  2.2628199e-05   4.3426537e-11
 -3.4099794e-05   3.9129955e-06
 -7.7375205e-07   4.7357780e-09
 -7.4725672e-06   1.5897554e-11
 -7.6153701e-06   4.5783954e-06
  3.4069657e-05   1.0723133e-08
  4.6431496e-06   4.0209809e-09
 -5.2611913e-06   2.7261129e-07
 -1.1612736e-05   3.0819535e-07
  1.4284369e-07   6.7227852e-08
 -1.1229859e-06   7.8594681e-08
  8.2026818e-06   7.9037441e-08
 -1.4368607e-05   1.2557030e-08
  1.3540370e-06   9.6901269e-09
  1.3637257e-05   7.3547159e-07
  8.0715681e-06   7.6375599e-08
 -2.5179703e-05   1.2856184e-09
  5.3842728e-06   2.4660782e-09
 -1.9029652e-05   4.0334181e-12
  2.0560776e-05   7.4380841e-07
 -3.3117693e-05   6.0700984e-08
  6.7077922e-06   2.5121441e-11
 -8.3614054e-07   3.3812122e-15
 -1.0329026e-05   8.8612936e-08
 -6.8932677e-05   4.5341546e-11
 -1.0161135e-06   2.6914208e-07
  4.0066334e-05   6.7765245e-11
 -2.0297508e-05   1.3490840e-08
  1.9409657e-05   1.1050283e-11
  1.1121617e-05   4.6654341e-06
 -6.0990633e-06   8.9585200e-08
 -4.5506495e-06   4.2558826e-10
 -1.0085195e-04   1.1981529e-09
  1.5131889e-01   1.0978637e-09
  2.0969370e-02   2.6849245e-09
  3.4156567e-06   2.9169379e-11
 -1.0450480e-01   1.9693493e-10
 -9.9358003e-06   4.5936906e-07
 -6.0571583e-06   1.5939492e-09
  6.2411808e-04   1.2909333e-08
 -1.1393896e-06   1.5677192e-11
  6.5721717e-05   2.6507574e-09
  2.0683578e-06   2.0281011e-06
 -3.0157651e-05   1.2616152e-06
 -2.0429105e-04   7.4546798e-16
 -9.3150911e-06   1.4055550e-11
  4.3797618e-04   2.2674219e-10
  5.8856040e-06   6.1321742e-10
 -9.5423784e-05   3.4871681e-09
 -3.9205308e-05   1.3637090e-09
 -2.5150212e-04   9.5026893e-09
 -8.8788045e-05   2.2773509e-08
 -1.2155523e-05   2.5931914e-07
  1.2738066e-04   6.9971673e-10
 -2.6843265e-05   1.7890863e-09
 -2.1736021e-04   5.6920985e-10
  9.0002573e-07   8.9044550e-11
  4.0453480e-05   7.5444966e-09
  2.2789682e-05   1.0557603e-06
 -2.1341824e-05   1.8576374e-07
  1.5027788e-05   2.9468779e-09
  1.9999427e-05   4.3947235e-08
 -4.8664924e-06   2.0353971e-08
  7.9247584e-05   1.8784026e-12
 -5.3745589e-06   8.7982500e-07
  2.0506020e-06   2.6549716e-07
 -7.2542230e-07   8.3663883e-07
  3.6648478e-06   8.0028397e-12
  3.3179527e-05   1.5928535e-12
 -1.1773848e-06   2.5018188e-09
  7.4833981e-05   2.3204816e-08
  3.0677818e-06   3.8641824e-12
 -1.6129932e-05   7.3399411e-09
 -9.4453018e-05   7.1469337e-16
 -3.5081716e-06   4.6225144e-09
 -1.0161329e-04   7.3246205e-14
  4.4083343e-05   3.8488258e-07
  4.1899420e-05   2.2526658e-08
 -2.4435249e-05   1.4240975e-08
  6.2187522e-05   1.2415460e-10
  4.3535310e-06   2.7406688e-08
 -3.4059027e-05   2.8551936e-08
  6.0384509e-06   1.2532429e-06
 -5.4544425e-06   4.1332786e-08
  8.3560726e-06   4.4070175e-11
 -1.1678020e-05   1.9451805e-08
  8.0095779e-06   5.1440200e-08
 -1.4676308e-05   9.5081667e-09
  1.7545423e-06   7.3830797e-08
  1.0397799e-05   1.9309754e-08
  6.1397509e-07   2.4689864e-10
  7.4588132e-01   1.5322429e-10
  1.0266891e-01   3.6301490e-11
 -9.7235775e-01   3.6852753e-11
 -9.8507690e-01   1.3323020e-12
 -1.2733786e+00   2.0225623e-09
  5.3689084e-03   2.7525597e-12
 -1.7704204e-05   1.1345173e-06
 -1.0237130e-05   1.6950604e-07
 -9.1891003e-01   2.8049900e-12
 -9.9307364e-01   2.7348224e-09
 -1.5404719e-05   6.3788718e-12
  2.9469527e-06   1.3549193e-07
 -2.3527538e-05   2.2685387e-10
  2.1226313e-06   3.2660371e-11
  1.4577225e-01   2.0910555e-10
 -3.1043482e-01   2.9562561e-10
  3.3072287e-05   4.5684388e-08
  1.8652112e-06   3.2651769e-08
  1.3596012e-02   3.5952352e-12
  8.8012286e-02   9.1169391e-11
  1.3328604e-01   9.9532958e-13
 -2.3684335e-05   5.4900693e-07
  1.7489446e-06   3.5784264e-10
  9.5176309e-02   7.4952891e-11
  4.5760459e-01   1.7297783e-12
  2.4537216e-05   1.2810133e-11
 -2.0275877e-05   1.6080441e-10
  3.4491991e-06   1.2038876e-07
 -5.9085714e-06   4.2529718e-09
 -1.7732187e-05   2.3956905e-09
  1.0794635e-04   1.0603779e-10
  8.3639605e-08   8.8252608e-07
 -1.8897521e-05   1.4778465e-09
 -4.5427689e-05   8.5629034e-07
 -6.1440232e-06   4.4745241e-10
 -3.5987166e-06   1.7864806e-15
 -8.9977939e-06   2.1812758e-09
  1.2331747e-05   2.4303684e-08
  3.2167104e-06   3.3606761e-07
  4.1339149e-06   1.6734960e-07
  8.5179445e-06   7.5526167e-08
 -5.1834550e-06   9.9564827e-09
 -1.1985093e-04   1.8691122e-14
  8.5364736e-06   7.0713116e-11
 -4.2212450e-05   3.6509914e-07
  1.9570543e-06   6.4832913e-12
  1.1783224e-05   3.1519384e-11
 -1.1833134e-05   1.0297763e-10
 -1.0897901e-06   5.2364232e-08
 -1.3871949e-06   3.9386454e-12
 -2.8677580e-06   6.1595412e-10
  3.2732332e-06   1.7929177e-07
  5.6355211e-06   2.2844951e-07
 -5.9742747e-06   2.4436648e-09
  3.0266967e-06   4.7450985e-08
 -3.5033932e-07   1.0368074e-08
  2.3353002e-07   7.3906563e-07
  1.8213068e-05   3.0630723e-08
  8.8882865e-05   1.1258883e-14
  1.2791634e-05   1.3475746e-10
 -2.7517885e-05   1.9661286e-10
 -3.1531613e-06   9.7599507e-12
  5.2876025e-05   8.8811110e-09
  3.4603206e-04   3.6521783e-10
  1.6879332e-05   3.2644415e-15
 -1.5147392e-05   5.3522781e-10
 -5.4942757e-06   1.1138770e-08
  5.1873290e-06   1.2893070e-09
  5.4066031e-06   5.6545577e-09
  5.5872915e-06   1.8403209e-12
  2.5216650e-04   1.0286862e-11
  8.2175529e-06   7.9649212e-08
 -6.8479931e-06   3.3224604e-11
  3.2598041e-06   1.4677499e-09
 -1.2971102e-05   4.8220656e-08
  5.9261611e-06   3.0882255e-09
  6.5732365e-06   8.5585240e-11
  3.9692125e-07   5.3739235e-10
  3.5469211e-06   6.0049787e-10
  5.1932784e-06   7.4384937e-10
 -2.3800503e-06   4.1979993e-09
 -1.5239771e-04   1.5815637e-13
  2.0363378e-04   1.7547812e-09
 -4.3448208e-07   6.3960869e-08
 -1.0707510e-05   3.5821701e-14
 -1.9991388e-05   2.8284206e-09
 -9.5422301e-06   1.1494346e-08
  3.8618884e-05   2.4970098e-10
  1.2527892e-06   8.4298785e-10
 -3.7246934e-06   1.9293385e-08
  7.4322721e-05   2.2366174e-12
 -1.9764018e-05   4.7021448e-08
  1.1403391e-05   1.3303168e-06
  2.1610631e-05   5.1850890e-08
 -4.0824494e-07   1.4103394e-09
 -1.1719599e-05   1.2936461e-08
 -2.3453372e-06   1.8124612e-10
 -1.6359525e-05   1.3164933e-08
 -4.6932524e-05   1.0032852e-06
  2.9536882e-06   2.4268806e-13
  4.2480124e-06   1.1744383e-08
 -1.6193645e-06   1.5778294e-09
 -1.5874062e-05   7.1339059e-09
  4.4082799e-06   1.4123251e-10
  1.7695164e-04   7.7144947e-13
  4.0103373e-06   1.0819726e-08
  1.6827720e-06   3.2881232e-08
  3.4412380e-05   1.0487926e-07
  9.0472975e-05   6.9505274e-10
 -1.3157651e-05   1.9739056e-07
  1.0183054e-05   5.4706907e-06
 -2.2815921e-05   1.6558936e-07
  5.5640780e-06   4.5709288e-07
  5.6742952e-06   5.0494929e-08
  2.5686031e-06   2.4083604e-08
  1.2128780e-05   6.0968425e-10
  1.0632466e-05   1.2923215e-10
  1.1382660e-05   3.1666655e-08
  9.3220360e-06   2.0489799e-10
  3.1776832e-05   4.3275603e-10
  1.3039328e+00   9.5081581e-11
 -3.0786712e+00   3.7545859e-11
  1.4188780e+00   1.0220248e-09
  6.5167731e-01   2.6102948e-10
 -4.0195708e+00   7.7087128e-11
  1.8078817e-01   1.4544550e-09
  4.7066937e-06   3.9417941e-07
  2.6086761e-06   4.6804360e-10
 -9.1373958e-02   1.2434501e-11
  1.8245639e-01   4.2516364e-12
 -1.5702594e-02   3.0760300e-10
 -7.2713151e-06   1.5200529e-13
  3.4834704e-06   1.3860436e-09
 -1.4592987e-01   8.3619947e-09
 -1.3563348e-05   9.1120072e-12
 -6.7627311e-01   2.6009184e-12
  3.3791599e-05   6.7094774e-10
 -7.5497030e-07   3.3809786e-07
  9.8476616e-05   1.6110493e-11
 -4.0656868e-02   9.0028514e-12
  7.5785880e-05   3.3860428e-09
 -9.2530190e-06   7.8464018e-09
  1.2133745e-05   1.4315076e-08
  1.8970223e-06   2.7588484e-11
  1.5110418e-01   1.5529061e-09
 -1.7105604e-06   7.0819441e-11
 -4.2511647e-06   1.0069259e-10
 -4.5499055e-06   3.2434151e-08
 -2.1887172e-07   2.7020710e-07
  3.3892661e-06   2.0231583e-09
 -1.7308037e+00   1.1356793e-12
 -7.8312320e-01   7.5216396e-12
  4.1065484e-01   1.4286293e-10
  8.8972074e-01   4.6195754e-09
  6.7740709e-01   6.4421124e-10
 -1.0516765e-01   5.0018084e-12
  4.6100591e-05   3.0071861e-15
  1.9741476e-05   6.8988317e-07
  4.2025471e-01   1.7260929e-11
  1.1466215e-01   1.2513294e-13
  1.8039260e-04   1.0349625e-10
  4.3135578e-06   4.2671914e-08
 -5.6562494e-06   1.6665130e-10
  1.3926842e-05   9.4406536e-13
 -7.7001140e-02   2.3596952e-10
  5.4239005e-01   7.6516544e-09
  7.5063581e-05   4.8672027e-16
  4.8996094e-06   3.2140757e-09
 -4.9885622e-01   2.0665909e-10
 -5.8532625e-01   2.3857913e-10
 -3.5103780e-01   3.0457310e-13
 -5.2341270e-06   2.2612642e-08
  4.0532996e-06   8.6795851e-08
 -3.4911293e-01   1.6153752e-08
 -1.0383416e+00   1.0476081e-15
 -1.7759256e-05   2.2281610e-10
  1.9851934e-06   3.3487538e-07
 -3.9367760e-06   2.1683543e-07
  1.2632365e-04   2.6938693e-10
  8.6665399e-02   8.3602014e-16
 -1.6737786e-05   2.3837545e-06
 -4.4097105e-06   1.8244285e-11
  1.5390464e-05   7.3502957e-12
  1.4557889e-06   1.1638028e-08
  1.9065007e-04   4.7848192e-10
  1.2716552e-06   1.3976396e-07
  2.0747027e-06   3.9693703e-07
  4.7066288e-07   2.9804590e-07
 -1.8045664e-04   1.2822765e-09
 -3.5555579e-05   1.8385143e-09
 -1.0006299e-05   4.0724945e-08
  5.2093550e-05   7.6045403e-08
 -8.4716030e-06   3.4031256e-09
  1.1192602e-05   6.8839144e-12
 -4.6506393e-06   4.3553423e-09
 -4.8199399e-07   4.1896041e-07
 -7.4643785e-06   1.2547180e-07
 -2.6273765e-06   1.6396098e-07
  1.5085974e-05   3.5047032e-07
 -5.4460902e-06   1.8429695e-11
 -2.1918228e-05   1.0539716e-10
  8.5426254e-06   5.0463677e-07
 -5.2810365e-06   6.1353205e-08
  1.9958079e-05   1.8359704e-11
  6.6914567e-06   1.5568426e-07
 -2.3459076e-07   4.0949404e-11
 -1.9465412e-07   4.1402273e-09
  1.6168204e-05   1.3474890e-14
  4.4004819e-06   1.4499613e-15
  7.2776197e-06   5.7462247e-12
 -5.3835488e-06   1.2213039e-09
 -6.8742329e-06   5.2017857e-08
  8.3825007e-06   3.0921713e-06
  1.8343362e-05   9.6064150e-07
 -9.6024849e-07   5.0108619e-09
 -2.1873668e-06   1.6273706e-09
  2.3149065e-05   5.4931681e-09
 -2.0948799e-05   1.8240567e-14
  2.8800218e-06   3.1729418e-11
 -1.2112654e-05   3.4219677e-10
 -5.6280249e-05   1.6365839e-06
 -1.1448359e-05   1.1522123e-07
 -5.0144172e-06   6.3052148e-08
  9.5254927e-06   1.0309061e-06
  1.8839550e-05   1.9860668e-08
  3.5366411e-05   2.4461439e-08
 -7.4634759e-06   2.6915808e-07
  6.0157872e-06   6.9482975e-10
 -6.6984421e-06   8.2863383e-10
  3.3241347e-06   1.4711990e-06
 -3.1242602e-05   1.6170462e-08
 -2.4030674e-05   3.8877199e-09
  1.5177708e-05   2.1604087e-11
 -1.4530169e-06   2.4683087e-09
 -1.7762534e-06   1.0274070e-07
 -9.6615186e-06   1.3067937e-06
  2.2988279e-06   4.4193152e-06
  3.5389501e-06   1.8638737e-09
  1.7137671e-05   3.7502160e-10
  9.8865542e-07   1.9269783e-12
  3.6339777e-06   2.9991509e-09
 -9.4600991e-06   5.9122696e-10
 -1.9778152e-05   6.3544677e-13
 -1.8919516e-07   1.6349215e-11
 -3.1485711e-06   8.1062160e-07
 -8.0174341e-06   2.3964151e-09
 -8.0994532e-06   1.4298305e-09
 -3.5413868e-07   3.7122386e-06
  1.4724201e-04   6.2285604e-10
 -1.2722720e-05   1.5233070e-10
 -2.4989637e-05   2.0654506e-08
 -3.5751887e-06   9.8447760e-12
  2.0016475e-06   2.9591593e-08
 -2.8214199e-06   4.0403153e-10
 -2.1709225e-06   5.3285433e-08
  6.1963201e-06   1.1871824e-12
 -8.2766206e-08   6.7555717e-09
  1.1816679e-05   6.4669086e-07
  1.1423926e-05   5.7549437e-07
  1.1985095e-06   1.1119146e-10
  9.3741050e-07   5.9482113e-09
 -4.9255518e-06   1.6728126e-09
  2.5264391e-05   2.0318852e-07
 -5.1182310e-06   1.1985319e-08
 -4.0220923e-05   2.4344954e-10
  1.3424959e-05   6.2112759e-09
 -4.2846138e-04   1.4376472e-07
  5.9567100e-07   1.4803521e-06
  9.9216413e-06   4.8351299e-11
  9.7011196e-07   1.0802781e-10
  7.0149163e-06   8.6198204e-09
 -1.3182770e-05   1.2988439e-08
 -7.2738908e-06   2.5716427e-09
 -1.4740982e-05   1.3834102e-06
  5.5572113e-05   3.3280583e-12
  7.9835991e-06   7.0635059e-07
  5.6542194e-06   7.9174880e-09
 -4.1935973e-06   9.7767625e-08
  2.8022108e-05   1.1250076e-08
  3.2411942e-06   3.4261491e-09
 -2.4011922e-06   9.2411501e-10
 -3.5456826e-06   2.3425994e-07
  4.0388236e-06   8.3557001e-09
  5.7053135e-06   2.9155112e-10
 -7.9734200e-06   7.9956983e-08
 -2.5122156e-06   4.0991385e-10
 -1.4526297e-05   2.1679316e-09
 -7.6172651e-06   3.5365954e-08
  3.0580013e-06   5.3111105e-08
 -1.6344549e-07   1.2450251e-09
 -1.7594306e-05   6.1347498e-07
  5.1669344e-06   2.6930334e-09
  1.3806212e-05   2.9695306e-07
  1.4305010e-05   1.0330686e-08
 -7.8546111e-07   1.5945849e-07
 -8.5364063e-06   6.5456021e-08
 -1.6825086e-06   3.0715607e-06
  8.1202394e-05   3.0475279e-16
 -4.4935387e-06   2.3562634e-11
 -1.0047999e-05   6.9172899e-08
  5.6579433e-06   1.3669756e-10
 -1.2759205e-05   1.7182676e-07
 -1.0152883e-05   1.2005138e-07
  8.1004637e-06   3.3902332e-08
 -2.7492197e-06   6.4101681e-13
  9.4993425e-08   9.6900177e-10
 -1.3279106e-04   5.2517303e-11
  1.2263875e-07   2.5925120e-10
  2.2154770e-06   8.7910229e-10
 -1.0879065e-05   9.3374053e-10
 -9.7322491e-06   1.3804363e-07
  8.2618662e-06   3.1123066e-11
  1.7846844e-06   1.8253166e-10
  4.5742368e-06   1.8282229e-07
  6.5858726e-06   9.4945057e-07
  5.5808181e-07   8.1214285e-11
 -3.5947326e-06   1.5925042e-12
 -1.4332672e-05   6.9653339e-11
 -4.2568586e-06   4.4527336e-08
  1.9053650e-05   1.5546717e-06
  2.0735140e-06   6.4000091e-08
 -3.2548658e-06   7.8771853e-07
 -7.6162792e-06   4.2447851e-11
  9.2752896e-05   3.1068617e-10
 -1.1830106e-05   3.8910635e-08
  7.7650693e-06   3.0607342e-08
  5.6196773e-06   1.8871060e-07
 -1.3636162e-05   1.2724618e-08
  2.2667682e-06   2.0390505e-11
  5.4345364e-06   1.9247050e-06
 -1.6474098e-05   1.6714989e-10
  7.7614586e-06   2.1266730e-13
  1.0575530e-05   5.3656975e-11
 -7.6231532e-05   1.9914338e-13
  8.8297929e-06   1.6936447e-11
 -1.2683983e-05   2.5718652e-10
  9.4909410e-06   2.4396510e-07
  8.1486687e-06   4.2328566e-10
 -8.2685961e-05   2.8601932e-12
 -8.3251780e-06   8.0135750e-12
  1.8996656e-05   1.0393542e-06
 -7.9843367e-06   1.0788190e-12
  1.5401965e-05   4.7156039e-09
  1.9663499e-05   1.9761226e-08
 -3.5364847e-05   4.4479421e-08
  5.0048038e-05   5.6162591e-08
  2.8775321e-04   2.7120504e-11
  5.8434881e-07   1.3600261e-12
 -3.4166624e-05   4.1695248e-08
 -4.0005034e-06   6.5749202e-07
 -1.4111539e-05   2.3193103e-10
  7.9592292e-06   1.7699959e-08
  1.0538299e-05   3.8809813e-11
  6.0545822e-06   6.7920164e-10
 -1.5621065e-07   2.5946138e-08
 -1.7575681e-05   3.8016447e-07
  6.0370035e-06   8.3824858e-13
 -1.2881455e-05   4.9912279e-09
 -2.5342153e-05   2.5653629e-12
 -1.8521467e-05   1.5578517e-07
 -2.1581511e-01   2.5523392e-09
 -1.8416564e-05   8.8462691e-14
 -2.8556931e-01   4.2781734e-16
 -9.0803027e-01   1.6865005e-09
 -2.5054485e-01   2.2879218e-10
 -1.4592026e-02   1.5817470e-14
  2.0384303e-05   2.4115028e-08
 -1.2036944e-05   1.8793885e-06
 -9.4955817e-02   1.6818582e-16
  1.8691069e+00   6.3730816e-09
 -1.7346293e-04   6.8108896e-10
 -1.5172706e-05   1.7113482e-08
  7.4212057e-06   2.6315413e-12
  1.3693848e-05   5.7151668e-13
  3.9610308e-02   3.1241767e-09
 -1.3511468e-06   1.3567495e-09
  1.0999578e-05   9.5895709e-09
 -3.2638690e-07   1.7462064e-08
  7.8036613e-03   4.7916667e-11
  1.1858345e-02   9.9282117e-13
  1.1486944e-05   2.0018762e-08
 -5.3633888e-05   6.1773009e-10
  8.9751616e-08   5.6624838e-08
  3.7360544e-04   1.1912199e-09
  1.8726058e-01   7.5576976e-14
 -4.5625093e-06   5.3083664e-08
 -2.9583682e-05   6.3934507e-08
  5.2516548e-06   1.5203408e-08
 -1.0103641e-05   2.5144898e-08
  6.1990690e-06   4.0928991e-10
  4.1766234e-06   2.8691546e-11
 -1.2950954e-04   5.2414709e-12
 -1.5573209e-04   1.2202872e-11
  8.4218431e-05   7.6437793e-13
  1.1077239e-04   5.4242427e-10
 -1.9655429e-06   1.9780655e-08
  1.6742401e-06   3.5487662e-07
  6.6033299e-06   9.5354551e-09
  2.3668877e-05   1.3294456e-10
  2.1764825e-05   1.1710035e-13
  5.0763657e-07   1.0406144e-08
  1.2657469e-05   5.2651721e-08
 -1.9164587e-05   9.0863779e-08
 -4.6888792e-05   1.3697038e-10
  1.0450879e-05   2.8586115e-08
 -8.9305991e-05   2.3167950e-13
  1.0138050e-05   2.5573268e-08
  3.5680638e-05   1.0689048e-07
  5.1495267e-06   7.1737266e-10
  1.9727906e-05   7.1300214e-08
  2.9819134e-07   9.2305608e-11
 -1.4831534e-05   1.1265609e-07
 -1.7668010e-05   3.1230676e-10
  7.6101255e-06   4.6626258e-09
 -2.4798469e-08   4.4837756e-07
 -1.1246963e-05   3.2407318e-10
 -5.5316632e-06   9.9078926e-11
  2.5825595e-06   8.3575902e-09
  1.8155402e-04   8.5615660e-11
  7.4334894e-06   4.2247289e-10
 -1.3169942e-05   6.6431270e-11
  1.8556224e-05   6.3593282e-14
  4.1855678e-06   1.1935619e-08
 -3.0740342e-04   1.8547178e-08
 -1.9492106e-06   6.9767331e-08
  1.0453985e-05   5.5394680e-06
  3.2776852e-06   2.1205565e-06
 -2.0442829e-05   6.4030820e-07
  1.1750029e-05   4.9268920e-08
 -2.3844918e-06   4.7299820e-10
  1.4669948e-07   5.7661196e-06
 -3.9497096e-05   1.8409934e-06
 -7.1235121e-07   1.8155437e-11
  6.4744899e-07   2.5859177e-09
 -6.8617796e-06   5.5623442e-08
  2.0123007e-05   2.7349424e-07
  2.9252533e-05   2.5681513e-07
  2.2137645e-07   1.2550866e-10
 -3.1368552e-05   4.3396320e-12
 -1.5800853e-05   2.9013609e-09
  2.1407137e-05   3.3667700e-07
 -7.2117609e-07   2.2495443e-09
 -6.5246536e-06   8.3887693e-07
 -4.8816337e-06   1.2676198e-06
 -2.2661341e-05   3.3158528e-06
 -5.8773862e-06   1.1852272e-07
 -9.0965214e-06   5.5720722e-08
  5.6117915e-05   7.1427877e-07
 -2.3500900e-06   1.0337322e-09
  1.0600684e-04   4.0074571e-07
  1.3006951e-04   1.2827794e-10
  1.4812843e-05   1.7853921e-08
 -9.9427558e-02   6.0665546e-13
 -7.0027745e-04   5.5684971e-15
 -2.2265375e-04   1.5386727e-09
  1.1694509e-05   3.0623679e-09
 -7.6812021e-06   3.8899793e-07
 -2.2401471e-06   1.1666169e-08
 -3.0690706e-05   9.3169404e-12
 -5.7149894e-04   4.1899203e-17
  8.7838816e-05   5.4852717e-10
  2.0929912e-05   4.0052387e-07
 -1.2639922e-06   1.3970572e-10
  7.6752576e-06   2.5568443e-08
 -1.0805916e-05   5.2211959e-08
 -1.4944271e-06   1.5936866e-09
  1.2798916e-05   4.3877012e-08
 -2.5664616e-05   1.9055527e-13
  1.5969490e-05   1.0322662e-09
  2.8469597e-04   3.0004176e-11
  1.0062758e-03   6.8288853e-14
  3.5858714e-06   4.0704237e-12
 -8.3674213e-06   3.9432482e-10
  1.2918490e-04   2.3806481e-09
  1.3256480e-05   1.1192096e-08
 -8.2722215e-07   1.7404944e-09
  7.3555639e-06   3.4325947e-08
  1.1634723e-05   2.6910616e-11
 -1.4915066e-05   5.3947129e-08
  5.6757555e-05   1.1466978e-08
  5.7043076e-06   2.4265962e-08
 -8.2189724e-02   8.2859840e-18
  3.9066540e-06   2.1068391e-09
 -2.2578863e-02   9.2260448e-14
 -5.1524156e-01   4.6371895e-12
 -3.9611042e-01   2.4216134e-09
 -4.0368423e-02   7.9172086e-12
 -1.9218910e-01   9.6718106e-11
 -7.3677045e-01   4.1219126e-09
  1.1402398e+00   2.9380279e-11
  2.1129701e-01   6.7063022e-11
 -3.2023808e-01   9.4269828e-11
 -3.0851051e-01   4.3037592e-14
 -3.8150365e-06   1.5938828e-06
 -2.9943472e-01   5.1729779e-13
  1.8241622e-05   1.1714101e-10
 -2.8358477e-01   1.8354988e-09
 -2.0127472e-06   8.6903946e-15
  6.6970354e-01   4.5424556e-10
  2.9033229e-01   1.7721016e-11
 -1.1125202e-07   1.4072655e-11
 -3.7373382e-05   5.2788039e-08
 -2.1907954e-05   4.9406261e-09
  2.9213439e-05   2.5641565e-08
 -1.0118925e-05   5.0088723e-08
  3.1117133e-06   2.9012504e-09
  6.6272408e-01   3.8320036e-10
 -5.1185692e-04   2.4043922e-09
 -7.3020606e-06   1.2231396e-12
  3.1414139e-01   3.5064742e-15
  6.7596966e-06   1.8477661e-07
  7.1358573e-01   3.4968834e-09
 -4.7372196e-06   4.5747996e-07
  1.8203717e+00   1.2248480e-08
 -5.3747374e-01   1.2917605e-14
 -7.7401263e-01   2.0093993e-09
 -6.9116867e-01   7.7211801e-09