80
Lattice="-7.09122138 4.92899446 10.88616713 10.65988525 -2.31585724 8.42817825 1.47953578 7.62855324 -11.56965183" Properties=species:S:1:pos:R:3:forces:R:3 energy=-154.72886599227786 pbc="T T T"
Ba      -0.78352488       3.37090263       2.30196414      -0.25428298      -0.02666655      -1.44473982
Ba       3.25935178       1.59904858       1.49206681       0.29810114       0.18742264       0.09048156
Zr      12.02544258       5.26894840      -2.98126917      -0.19257089       0.49618076      -0.28897034
Zr       2.43814022       8.27192933      -6.65471557       0.40537751       1.36891006      -0.12324618
S       -1.05246306       2.04843370       4.93836685      -0.63261996       0.12048624       0.22716061
S        0.61707590       2.21913419      -0.52308828      -0.24252371       0.36218790       0.20417641
S        2.07012712       2.81205017       4.27165290       0.22455676      -1.38260370       0.28062802
S        3.81735842       3.22185503      -1.21849721      -0.41920881      -0.67431134      -0.11382895
S        1.18762432       1.21886822       7.28973794       0.56655279      -0.14649724       0.09935463
S        2.02762534       7.91975984      -9.12033944      -0.26132459      -0.23507657       0.13758853
Ba      -0.04057562       7.19974245      -3.41009202      -0.18047173       0.35397889       0.60592538
Ba       4.08491750       5.71641613      -4.16106295       0.10590195      -0.54072869      -0.40327914
Zr      11.26139031       1.60317814       2.44708330       0.84624764      -0.73466834       1.09433903
Zr       1.68656577       4.42596296      -1.16028700      -0.07389334       0.40714995       1.04361146
S       -0.41144909       5.52014916      -0.47488329      -0.19710986       0.47809383      -0.25735123
S        1.16232377       6.33072781      -6.04896397      -0.31112770      -0.75294131       0.69002662
S        2.84011858       6.61489718      -1.65060696      -0.21297429      -0.41050756       0.28389657
S        4.35814844       6.86169514      -7.03712925       0.69627478      -0.00823105       0.46235000
S        2.36536411       4.55738369       1.37631912      -0.46096363       0.37501729      -0.46830665
S        1.31817626       3.97437738      -3.50400163      -0.69310030       0.14504225      -0.05526948
Ba       4.53432577       2.03115371       6.21830889      -0.36858565       0.96089868      -0.30609138
Ba       8.87989171       0.46337097       5.90902363       0.30585403       0.17516087      -0.53768690
Zr      -0.30263102      11.33310380       3.55516303      -0.09328501       0.14843886      -0.00433571
Zr       7.48335426       7.21341087      -2.27136328       0.70077907      -0.50405526      -1.60530949
S        4.17949688       1.21220058       9.16890991       0.65816026      -0.08318990      -0.18395336
S        5.69065267       1.10526231       3.35593856       0.00672756       0.41741450       0.80712988
S        7.58227291       1.39610826       8.36499590      -0.42688193       0.80786429       0.46240768
S        8.86316654       1.76965087       2.84668804       0.88494772      -0.33675716       0.17322847
S        6.80233094      -0.09561717      11.44355154      -0.16485736       0.57154547       1.03557116
S        5.74287782      -0.68843761       6.63979571       0.03838485      -0.52437158      -0.21811223
Ba       5.06188262       6.12569223       0.86970768      -0.18185783      -0.39435617      -0.26403608
Ba       9.72215634       4.21535850       0.31974877      -0.66734865       0.68500275      -1.25194817
Zr      -0.93277474       7.59258897       9.31205823      -0.02615695       0.47808013       0.50461622
Zr       7.00548614       3.30104153       3.14087643      -0.71051679       0.58140956       0.64697947
S        4.85397195       4.47582826       3.64641301       1.49942502       0.05461491       0.15954806
S        6.08506340       5.28616087      -1.93844622       0.55055478      -0.20246011      -0.14469272
S        8.43615236       5.31878376       2.70646824      -0.48220390       0.08520303       0.42801896
S        9.63983991       5.75007769      -2.43749089       0.50070947       0.04628558      -0.78739306
S        7.76044014       3.65463444       5.53574708      -0.68139328      -0.57488866       0.39249966
S        6.61042631       3.20973545       0.77182454      -0.06603581      -0.04310867      -0.02029612
Ba      -4.63324989       5.70826930       7.83354121       0.44468076       0.89066120       0.14890227
Ba      -0.06787354       4.24301975       7.03670806      -0.01135507      -0.28934533      -0.79898630
Zr      -3.38959782       2.46396058       5.43263945       0.28348820      -0.77969077       0.22855575
Zr      -1.11197720      10.69988949      -1.35872949      -0.44139233       0.01550944       0.22407657
S       -4.74856119       4.26287321      10.48707989       0.10864735      -0.22321495      -0.05594048
S       -3.14646156       4.87981248       5.39382916      -0.00056649       0.36954081      -0.62278521
S       -1.29613559       5.12604030       9.66264836      -0.51573053       0.50923030      -0.02453606
S        0.08158955       5.45174084       4.11663808      -0.47427868       0.90622819       0.46583830
S       -0.89151700      11.05743899       1.11858283       0.04437442      -0.39903190      -0.01065434
S       -1.57019949      10.26336189      -3.69474975       0.31426787       0.01287101       0.01949397
Ba      -3.54748377       9.60355315       1.86897828      -0.25488521      -0.07602249      -0.42816592
Ba       0.60881003       7.90314536       1.33457033      -0.50533388      -0.40759584      -0.49753111
Zr       7.68758794       3.89347269       8.01214020       1.44604669      -0.46845275       0.61484132
Zr      -2.00753353       6.91558274       4.70158149       0.40476316       0.23762946      -0.99730698
S       -4.00724979       8.40705093       4.73410199       0.38981486      -0.37317181       0.06378731
S       -2.22128479       8.53771680      -0.91160024      -0.56449333      -0.62596612       0.64667351
S       -0.66817622       8.91970380       3.90253826      -0.14862635       0.28117188       0.19340190
S        1.04225820       9.39881591      -1.29498232      -1.91764411       0.55817638       0.00222997
S       -1.29009163       7.21928181       6.98545764      -0.09030519       0.28467414      -1.07808482
S       -2.51178715       6.54552739       2.28548590      -0.30230564      -0.23887918      -1.59584019
Ba       0.33188258       4.55220029      12.02418145       1.25508362       0.32356129       0.02672441
Ba       5.30477128       3.12557161      11.32518036       0.24490991      -0.18596971       0.25432210
Zr       1.86179094       1.45421081       9.79520758      -0.29895016      -0.27570162      -1.52464564
Zr       2.76856488       2.01195985      14.49516262      -0.20033790      -1.20596463      -0.20985703
S        0.60755378       3.18534973      14.72389943      -0.15450761       0.11410577       0.26656663
S        1.88270960       3.97066787       9.30985339       0.62426228      -0.11991352       0.65018776
S        3.77135119       4.02178851      13.79192519       0.61090138       0.82636635      -0.46779744
S        5.33218389       4.34001822       8.42916151       0.08300894      -0.01547967      -0.33211767
S        3.24084364       2.47130606      16.83231619      -0.81850157      -0.68300418       0.28279990
S        3.66560877       8.93317199       0.50841715       0.84539710       0.83782892       1.56937711
Ba       1.60904114       9.04805036       5.93906407       0.21685556      -1.05247766       0.43908387
Ba       6.00797667       6.86111419       5.41315188       0.22532899      -0.31042596       0.10619474
Zr       2.51841620       5.15668983       3.76062958      -0.88039456      -0.24420530      -0.31031205
Zr       3.29831490       5.78731041       8.54665066      -0.47777840       1.11214766      -0.25018233
S        1.44139638       7.55635860       8.82155435       0.67793220      -0.65563727      -0.00609641
S        2.81686287       7.48876296       3.19387819       0.99708325       0.93217119       0.75628092
S        4.61626280       7.84507968       7.91534903       0.25225220      -0.63598334       0.27363884
S        6.39950617       8.23387751       2.64608872      -1.66647064       0.47278966       0.38925416
S        4.15645439       6.58885777      10.97779633      -0.29272870      -1.16534090      -1.36723095
S        2.80243736       5.69888041       6.12617258       0.26022727       0.01584266       1.60514824
