[{"__ndarray__": [[39, 39], "float64", [70.0, 3.6274339192066535e-26, -6.32922153610352e-25, -2.1998505367933e-25, -3.5823369701213235e-26, -4.98879177369979e-25, 0.0, 0.0, 0.0, -6.228762542656641e-26, -3.0844290091311445e-26, -4.403672387049263e-25, -9.343143795548527e-26, -4.626643552270299e-26, -1.016283503721533e-24, -3.114381268658521e-26, -1.54221451482001e-26, -2.20183619185663e-25, -2.8913753364716702e-15, 2.891375336854236e-15, -8.528075833114039e-25, 2.891375336118538e-15, -2.891375336152715e-15, -4.129227428208527e-25, 2.891375336118379e-15, 2.891375336106237e-15, -7.460520756268434e-25, -2.8913753365263466e-15, -2.891375335967426e-15, -7.0773660938533e-25, -1.3659923532007885e-13, 4.769536029082635e-28, 1.974321396064535e-27, 8.316007679962683e-27, -1.365992353204848e-13, -8.759443389257826e-26, 2.0271691022619382e-27, -2.0294081170790613e-25, -5.31233704658412e-14, 3.6274339192066535e-26, 70.0, -7.926786541867087e-22, -3.914789607010431e-22, -3.7944640417865855e-22, -1.1482698178826395e-21, 0.0, 0.0, 0.0, 2.44907979175756e-26, -2.5637424293160998e-22, -5.115780376562595e-22, 3.6736320754474483e-26, -3.845613646970678e-22, -1.8311410165446262e-21, 1.2245491556251245e-26, -1.2818712152722038e-22, -2.557890188846805e-22, 3.171963826593789e-12, -3.17196382637048e-12, -1.048468246824183e-21, -3.1719638271884214e-12, 3.1719638268684236e-12, -6.618443275338721e-22, -3.1719638271884024e-12, -3.1719638273585108e-12, -1.0229163427949266e-21, 3.1719638264595565e-12, 3.171963826955502e-12, -1.0141030064282715e-21, -2.2372366231440306e-11, 7.023993277105744e-25, -1.5588485617511058e-26, 4.415019679546786e-24, -2.237236623207131e-11, -6.874089904086217e-23, -9.049155474080178e-27, -2.9054714415798477e-22, 5.1708626133702867e-11, -6.32922153610352e-25, -7.926786541867087e-22, 70.0, -5.029124085804585e-21, -3.086283281819918e-21, -1.4967052534910316e-20, 0.0, 0.0, 0.0, -4.2423099840360285e-25, -2.942081738988845e-21, -8.365106821415537e-21, -6.363444108116093e-25, -4.413122611809101e-21, -2.6890270943788e-20, -2.121145318077107e-25, -1.471040871183922e-21, -4.182553409906803e-21, -1.180236399352957e-11, 1.1802363999978023e-11, -1.6835438100909003e-20, 1.180236398722419e-11, -1.1802363989266133e-11, -9.222474332324779e-21, 1.1802363987224323e-11, 1.180236398483991e-11, -1.6717967053652542e-20, -1.18023639956431e-11, -1.180236398875732e-11, -1.5246623344321227e-20, 6.779615921745698e-10, 2.8369594770948483e-24, 6.299841962557221e-26, 1.826247474264552e-23, 6.779615921660642e-10, -7.9363520364825515e-22, 2.707223415338015e-26, -3.731370915112189e-21, 1.7728230875231553e-09, -2.1998505367933e-25, -3.914789607010431e-22, -5.029124085804585e-21, 70.0, -1.420990474639676e-21, -6.168116235313195e-21, 0.0, 0.0, 0.0, -1.471142670443799e-25, -1.2444267096261637e-21, -3.310540008086286e-21, -2.206705790924891e-25, -1.866640065858559e-21, -1.084052461889168e-20, -7.355671561218127e-26, -6.222133554367258e-22, -1.6552700038400604e-21, -8.495489028721095e-13, 8.495489052475073e-13, -6.684391676862745e-21, 8.495489001562131e-13, -8.495489011687152e-13, -3.7531910777609456e-21, 8.495489001562801e-13, 8.495488991877114e-13, -6.617216980327446e-21, -8.495489037143143e-13, -8.495489009071929e-13, -6.1221839653668125e-21, 2.0403077513910526e-10, 1.718715367539788e-24, 5.161524215340097e-27, 1.095733605258039e-23, 2.0403077513562128e-10, -3.354576659091637e-22, -1.482602017406559e-27, -1.542736340164864e-21, 6.412173555333366e-10, -3.5823369701213235e-26, -3.7944640417865855e-22, -3.086283281819918e-21, -1.420990474639676e-21, 70.0, -4.18584480233636e-21, 0.0, 0.0, 0.0, -2.3209166411969717e-26, -9.00799488219789e-22, -2.0067219992439966e-21, -3.481325946989868e-26, -1.3511992333756169e-21, -6.930919280603735e-21, -1.1604265642733755e-26, -4.503997444076803e-22, -1.0033609997025841e-21, 7.171649618284988e-12, -7.171649617169724e-12, -4.0896444560026974e-21, -7.171649620332318e-12, 7.171649619345623e-12, -2.4633441823744655e-21, -7.171649620332255e-12, -7.171649620966147e-12, -4.01292080600005e-21, 7.171649617764408e-12, 7.171649619612121e-12, -3.869971813496072e-21, 2.477033385650847e-12, 2.0855746245676168e-24, -3.080258321476865e-26, 1.3125048636588034e-23, 2.4770333833251253e-12, -2.42187625388696e-22, -2.1079312059102404e-26, -1.055217092801425e-21, 2.8447975141395665e-10, -4.98879177369979e-25, -1.1482698178826395e-21, -1.4967052534910316e-20, -6.168116235313195e-21, -4.18584480233636e-21, 70.0, 0.0, 0.0, 0.0, -3.3381358083582805e-25, -3.687486979010803e-21, -9.859725994451566e-21, -5.007179229175852e-25, -5.53123047271166e-21, -3.223008823189901e-20, -1.6690555414636803e-25, -1.8437434913769864e-21, -4.92986299658435e-21, -2.0106668340915107e-12, 2.0106668411999697e-12, -1.989690830500268e-20, 2.010666826059411e-12, -2.0106668290264496e-12, -1.1151647370055027e-20, 2.0106668260595983e-12, 2.0106668231789063e-12, -1.9706929762555624e-20, -2.0106668365967064e-12, -2.0106668282671253e-12, -1.8204759047353537e-20, 6.136915621737989e-10, 4.846999550799124e-24, 1.9393055298237166e-26, 3.082457288529138e-23, 6.136915621634553e-10, -9.935358589530761e-22, -2.4340736035155716e-27, -4.57731288674568e-21, 1.9326280012824806e-09, 0.0, 0.0, 0.0, 0.0, 0.0, 0.0, 70.0, 0.0, 0.0, 0.0, 0.0, 0.0, 0.0, 0.0, 0.0, 0.0, 0.0, 0.0, 0.0, 0.0, 0.0, 0.0, 0.0, 0.0, 0.0, 0.0, 0.0, 0.0, 0.0, 0.0, 0.0, 0.0, 0.0, 0.0, 0.0, 0.0, 0.0, 0.0, 0.0, 0.0, 0.0, 0.0, 0.0, 0.0, 0.0, 0.0, 70.0, 0.0, 0.0, 0.0, 0.0, 0.0, 0.0, 0.0, 0.0, 0.0, 0.0, 0.0, 0.0, 0.0, 0.0, 0.0, 0.0, 0.0, 0.0, 0.0, 0.0, 0.0, 0.0, 0.0, 0.0, 0.0, 0.0, 0.0, 0.0, 0.0, 0.0, 0.0, 0.0, 0.0, 0.0, 0.0, 0.0, 0.0, 0.0, 0.0, 70.0, 0.0, 0.0, 0.0, 0.0, 0.0, 0.0, 0.0, 0.0, 0.0, 0.0, 0.0, 0.0, 0.0, 0.0, 0.0, 0.0, 0.0, 0.0, 0.0, 0.0, 0.0, 0.0, 0.0, 0.0, 0.0, 0.0, 0.0, 0.0, 0.0, 0.0, -6.228762542656641e-26, 2.44907979175756e-26, -4.2423099840360285e-25, -1.471142670443799e-25, -2.3209166411969717e-26, -3.3381358083582805e-25, 0.0, 0.0, 0.0, 70.0, -2.05938453055497e-26, -2.950705166960142e-25, -6.228585359171604e-26, -3.089076821610867e-26, -6.814160913296706e-25, -2.0761951221522007e-26, -1.0296922720440271e-26, -1.4753525823917687e-25, -1.9371100296908234e-15, 1.9371100299482973e-15, -5.715673821251504e-25, 1.9371100294554943e-15, -1.93711002947747e-15, -2.763340827901692e-25, 1.9371100294553937e-15, 1.937110029447102e-15, -5.003055242966591e-25, -1.937110029727682e-15, -1.9371100293539943e-15, -4.742139339351649e-25, -7.694018548699543e-14, 3.0660375371226045e-28, 1.307322096950071e-27, 5.543209700753328e-27, -7.694018548726697e-14, -5.842067170299003e-26, 1.3477429680788352e-27, -1.356253969150811e-25, -3.564409357154514e-14, -3.0844290091311445e-26, -2.5637424293160998e-22, -2.942081738988845e-21, -1.2444267096261637e-21, -9.00799488219789e-22, -3.687486979010803e-21, 0.0, 0.0, 0.0, -2.05938453055497e-26, 70.0, -1.932589263246197e-21, -3.089028967721632e-26, -1.1326649505667431e-21, -6.396671886721311e-21, -1.0296666110597774e-26, -3.775549835842323e-22, -9.662946315414475e-22, 1.3379809547993173e-12, -1.337980953477162e-12, -3.908375536577878e-21, -1.33798095646162e-12, 1.337980955798177e-12, -2.2272496064368968e-21, -1.3379809564615784e-12, -1.3379809570368857e-12, -3.863268449322272e-21, 1.3379809543059764e-12, 1.337980955970595e-12, -3.603376334757592e-21, 9.339798942590563e-11, 1.1761691200393106e-24, -4.072822636892122e-27, 7.4449366577407e-24, 9.339798942383114e-11, -2.032176073083815e-22, -4.8730733775655876e-27, -9.235451164382539e-22, 3.5682317921096194e-10, -4.403672387049263e-25, -5.115780376562595e-22, -8.365106821415537e-21, -3.310540008086286e-21, -2.0067219992439966e-21, -9.859725994451566e-21, 0.0, 0.0, 0.0, -2.950705166960142e-25, -1.932589263246197e-21, 70.0, -4.426043907372019e-25, -2.8988838970441008e-21, -1.7752715113859317e-20, -1.4753462498039574e-25, -9.66294632753535e-22, -2.768820918309427e-21, -7.540585847345419e-12, 7.540585851637402e-12, -1.1133922006505794e-20, 7.540585843217503e-12, -7.54058584453139e-12, -6.0829829745815285e-21, 7.540585843217579e-12, 7.540585841642125e-12, -1.106524890952316e-20, -7.540585848741321e-12, -7.540585844211163e-12, -1.0066950907648373e-20, 4.5170558710060574e-10, 1.6061168390688396e-24, 4.3791078071014425e-26, 1.0345752735499141e-23, 4.517055870950031e-10, -5.208284863771423e-22, 2.0846731058815318e-26, -2.4554963717589148e-21, 1.18730139887414e-09, -9.343143795548527e-26, 3.6736320754474483e-26, -6.363444108116093e-25, -2.206705790924891e-25, -3.481325946989868e-26, -5.007179229175852e-25, 0.0, 0.0, 0.0, -6.228585359171604e-26, -3.089028967721632e-26, -4.426043907372019e-25, 70.0, -4.633543490251323e-26, -1.0221197163075077e-24, -3.1142926770569333e-26, -1.5445144940094545e-26, -2.213021952053672e-25, -2.905701972553669e-15, 2.9057019729398538e-15, -8.573482942383568e-25, 2.9057019722006477e-15, -2.905701972233602e-15, -4.144996112178539e-25, 2.905701972200475e-15, 2.9057019721881056e-15, -7.5045552129389165e-25, -2.9057019726089148e-15, -2.9057019720484465e-15, -7.113183939656652e-25, -1.1540925062057616e-13, 4.599045426162904e-28, 1.9609831099266953e-27, 8.31481189936831e-27, -1.154092506209836e-13, -8.763087952296274e-26, 2.0216144221713948e-27, -2.0343748722749606e-25, -5.346425574949463e-14, -4.626643552270299e-26, -3.845613646970678e-22, -4.413122611809101e-21, -1.866640065858559e-21, -1.3511992333756169e-21, -5.53123047271166e-21, 0.0, 0.0, 0.0, -3.089076821610867e-26, -1.1326649505667431e-21, -2.8988838970441008e-21, -4.633543490251323e-26, 70.0, -9.595007837332311e-21, -1.5444999294785376e-26, -5.663324758077608e-22, -1.4494419483995739e-21, 2.0069714575867272e-12, -2.0069714556034914e-12, -5.862563309280057e-21, -2.00697146008018e-12, 2.0069714590850146e-12, -3.3408744121840047e-21, -2.0069714600801178e-12, -2.006971460943078e-12, -5.794902678332683e-21, 2.0069714568467148e-12, 2.006971459343642e-12, -5.4050645062220444e-21, 1.4009698355113078e-10, 1.7642536822159616e-24, -6.109233918878479e-27, 1.1167404998014877e-23, 1.40096983548019e-10, -3.0482641119598215e-22, -7.309610033612773e-27, -1.385317675711819e-21, 5.352347679441847e-10, -1.016283503721533e-24, -1.8311410165446262e-21, -2.6890270943788e-20, -1.084052461889168e-20, -6.930919280603735e-21, -3.223008823189901e-20, 0.0, 0.0, 0.0, -6.814160913296706e-25, -6.396671886721311e-21, -1.7752715113859317e-20, -1.0221197163075077e-24, -9.595007837332311e-21, 70.0, -3.4070592597620437e-25, -3.1983359468620136e-21, -8.876357555442282e-21, -1.7256627864290715e-11, 1.7256627877634292e-11, -3.5766613191146106e-20, 1.7256627850491388e-11, -1.7256627855214696e-11, -1.976810394827533e-20, 1.725662785049169e-11, 1.725662784538294e-11, -3.548094520849482e-20, -1.7256627868786154e-11, -1.7256627854023446e-11, -3.252055082102117e-20, 1.3118248867410136e-09, 7.080996292565104e-24, 9.039824852111304e-26, 4.533424092725033e-23, 1.3118248867227408e-09, -1.7246555151900927e-21, 2.830919464285097e-26, -8.04361931037673e-21, 3.649157209650675e-09, -3.114381268658521e-26, 1.2245491556251245e-26, -2.121145318077107e-25, -7.355671561218127e-26, -1.1604265642733755e-26, -1.6690555414636803e-25, 0.0, 0.0, 0.0, -2.0761951221522007e-26, -1.0296666110597774e-26, -1.4753462498039574e-25, -3.1142926770569333e-26, -1.5444999294785376e-26, -3.4070592597620437e-25, 70.0, -5.14833308913528e-27, -7.376731243577919e-26, -9.685507139985793e-16, 9.685507141273031e-16, -2.857824069838656e-25, 9.685507138809024e-16, -9.68550713891903e-16, -1.3816629945894197e-25, 9.685507138808397e-16, 9.685507138767193e-16, -2.501514956164551e-25, -9.685507140170117e-16, -9.68550713830181e-16, -2.371057750298363e-25, -3.847034857687496e-14, 1.5330165442849865e-28, 6.536610449434949e-28, 2.7716021331412606e-27, -3.847034857701081e-14, -2.921026659587605e-26, 6.738714807242386e-28, -6.781238792278664e-26, -1.7822698813286254e-14, -1.54221451482001e-26, -1.2818712152722038e-22, -1.471040871183922e-21, -6.222133554367258e-22, -4.503997444076803e-22, -1.8437434913769864e-21, 0.0, 0.0, 0.0, -1.0296922720440271e-26, -3.775549835842323e-22, -9.66294632753535e-22, -1.5445144940094545e-26, -5.663324758077608e-22, -3.1983359468620136e-21, -5.14833308913528e-27, 70.0, -4.831473163359421e-22, 6.689904759768292e-13, -6.689904753157512e-13, -1.95418777054366e-21, -6.689904768079806e-13, 6.689904764762585e-13, -1.1136248043993705e-21, -6.689904768079602e-13, -6.689904770956132e-13, -1.9316342269186432e-21, 6.68990475730159e-13, 6.689904765624681e-13, -1.801688169375845e-21, 4.669899514343442e-11, 5.880845593748368e-25, -2.036411296436882e-27, 3.722468327318578e-24, 4.669899514239717e-11, -1.0160880374814597e-22, -2.43653667384499e-27, -4.617725586812665e-22, 1.784115908943427e-10, -2.20183619185663e-25, -2.557890188846805e-22, -4.182553409906803e-21, -1.6552700038400604e-21, -1.0033609997025841e-21, -4.92986299658435e-21, 0.0, 0.0, 0.0, -1.4753525823917687e-25, -9.662946315414475e-22, -2.768820918309427e-21, -2.213021952053672e-25, -1.4494419483995739e-21, -8.876357555442282e-21, -7.376731243577919e-26, -4.831473163359421e-22, 70.0, -3.770292921903783e-12, 3.770292924049775e-12, -5.566961002170537e-21, 3.770292919839825e-12, -3.770292920496769e-12, -3.0414914868289338e-21, 3.770292919839862e-12, 3.770292919052135e-12, -5.532624453641906e-21, -3.770292922601733e-12, -3.770292920336655e-12, -5.033475452953144e-21, 2.2585279310437337e-10, 8.030584211975497e-25, 2.1895539021616075e-26, 5.172876375618807e-24, 2.258527931015721e-10, -2.6041424316787306e-22, 1.0423365523657537e-26, -1.2277481857310786e-21, 5.936506981803812e-10, -2.8913753364716702e-15, 3.171963826593789e-12, -1.180236399352957e-11, -8.495489028721095e-13, 7.171649618284988e-12, -2.0106668340915107e-12, 0.0, 0.0, 0.0, -1.9371100296908234e-15, 1.3379809547993173e-12, -7.540585847345419e-12, -2.905701972553669e-15, 2.0069714575867272e-12, -1.7256627864290715e-11, -9.685507139985793e-16, 6.689904759768292e-13, -3.770292921903783e-12, 61.56544842742427, 8.434551572591525, -1.5572720633701724e-11, 8.43455157257924, -8.434551572571586, -3.72048422852257e-12, 8.43455157257924, 8.434551572579393, -1.503930973915973e-11, -8.434551572577726, -8.434551572572655, -1.1355898294920401e-11, -2.971555555279374, 1.3698049407623409e-14, 7.130872259359181e-16, 8.50347331337103e-14, -2.9715555552824497, 1.7192700054261053e-13, 5.613606278001245e-16, -6.21718627522715e-13, 2.4622777219464282, 2.891375336854236e-15, -3.17196382637048e-12, 1.1802363999978023e-11, 8.495489052475073e-13, -7.171649617169724e-12, 2.0106668411999697e-12, 0.0, 0.0, 0.0, 1.9371100299482973e-15, -1.337980953477162e-12, 7.540585851637402e-12, 2.9057019729398538e-15, -2.0069714556034914e-12, 1.7256627877634292e-11, 9.685507141273031e-16, -6.689904753157512e-13, 3.770292924049775e-12, 8.434551572591525, 61.56544842739269, 1.5572720642296166e-11, -8.43455157259503, 8.434551572587377, 3.720484233015403e-12, -8.434551572595032, -8.43455157259518, 1.503930974773693e-11, 8.434551572593517, 8.434551572588447, 1.135589830254655e-11, 2.9715555547708474, -1.3698049407845517e-14, -7.130872260169798e-16, -8.503473313541414e-14, 2.9715555547739214, -1.71927000184937e-13, -5.613606278438566e-16, 6.217186292848957e-13, -2.462277722999197, -8.528075833114039e-25, -1.048468246824183e-21, -1.6835438100909003e-20, -6.684391676862745e-21, -4.0896444560026974e-21, -1.989690830500268e-20, 0.0, 0.0, 0.0, -5.715673821251504e-25, -3.908375536577878e-21, -1.1133922006505794e-20, -8.573482942383568e-25, -5.862563309280057e-21, -3.5766613191146106e-20, -2.857824069838656e-25, -1.95418777054366e-21, -5.566961002170537e-21, -1.5572720633701724e-11, 1.5572720642296166e-11, 70.0, 1.557272062533239e-11, -1.5572720628031278e-11, -1.2263960660512726e-20, 1.5572720625332562e-11, 1.5572720622160422e-11, -2.225058047792787e-20, -1.5572720636513207e-11, -1.5572720627362354e-11, -2.0280089514218755e-20, 9.038133656069574e-10, 3.6400217344825076e-24, 8.489399181535403e-26, 2.3435367863626117e-23, 9.038133655956505e-10, -1.0540489440931815e-21, 3.7496012242290664e-26, -4.959117105653277e-21, 2.366472649848066e-09, 2.891375336118538e-15, -3.1719638271884214e-12, 1.180236398722419e-11, 8.495489001562131e-13, -7.171649620332318e-12, 2.010666826059411e-12, 0.0, 0.0, 0.0, 1.9371100294554943e-15, -1.33798095646162e-12, 7.540585843217503e-12, 2.9057019722006477e-15, -2.00697146008018e-12, 1.7256627850491388e-11, 9.685507138809024e-16, -6.689904768079806e-13, 3.770292919839825e-12, 8.43455157257924, -8.43455157259503, 1.557272062533239e-11, 61.56544842741725, 8.43455157257509, 3.720484223697549e-12, -8.434551572582748, -8.434551572582897, 1.503930973090644e-11, 8.434551572581233, 8.434551572576162, 1.1355898287158043e-11, 2.971555555451111, -1.3698049404532101e-14, -7.130872259530799e-16, -8.503473311409578e-14, 2.9715555554541906, -1.719270009910761e-13, -5.613606278181159e-16, 6.217186255058532e-13, -2.4622777212342672, -2.891375336152715e-15, 3.1719638268684236e-12, -1.1802363989266133e-11, -8.495489011687152e-13, 7.171649619345623e-12, -2.0106668290264496e-12, 0.0, 0.0, 0.0, -1.93711002947747e-15, 1.337980955798177e-12, -7.54058584453139e-12, -2.905701972233602e-15, 2.0069714590850146e-12, -1.7256627855214696e-11, -9.68550713891903e-16, 6.689904764762585e-13, -3.770292920496769e-12, -8.434551572571586, 8.434551572587377, -1.5572720628031278e-11, 8.43455157257509, 61.56544842743256, -3.7204842254061945e-12, 8.434551572575094, 8.434551572575241, -1.5039309733534735e-11, -8.43455157257358, -8.434551572568507, -1.135589828977493e-11, -2.9715555555062774, 1.369804940648749e-14, 7.130872259135244e-16, 8.503473312640405e-14, -2.971555555509353, 1.7192700081256666e-13, 5.613606277908304e-16, -6.217186262581764e-13, 2.462277721359004, -4.129227428208527e-25, -6.618443275338721e-22, -9.222474332324779e-21, -3.7531910777609456e-21, -2.4633441823744655e-21, -1.1151647370055027e-20, 0.0, 0.0, 0.0, -2.763340827901692e-25, -2.2272496064368968e-21, -6.0829829745815285e-21, -4.144996112178539e-25, -3.3408744121840047e-21, -1.976810394827533e-20, -1.3816629945894197e-25, -1.1136248043993705e-21, -3.0414914868289338e-21, -3.72048422852257e-12, 3.720484233015403e-12, -1.2263960660512726e-20, 3.720484223697549e-12, -3.7204842254061945e-12, 70.0, 3.720484223697655e-12, 3.720484221935538e-12, -1.2157866426661324e-20, -3.720484230065141e-12, -3.720484224972315e-12, -1.1180810884778524e-20, 4.186147721191191e-10, 2.665430227886521e-24, 2.578806557927503e-26, 1.700513156652259e-23, 4.186147721128065e-10, -6.003623029822222e-22, 7.897689117095238e-27, -2.7850871451576484e-21, 1.2280217331689963e-09, 2.891375336118379e-15, -3.1719638271884024e-12, 1.1802363987224323e-11, 8.495489001562801e-13, -7.171649620332255e-12, 2.0106668260595983e-12, 0.0, 0.0, 0.0, 1.9371100294553937e-15, -1.3379809564615784e-12, 7.540585843217579e-12, 2.905701972200475e-15, -2.0069714600801178e-12, 1.725662785049169e-11, 9.685507138808397e-16, -6.689904768079602e-13, 3.770292919839862e-12, 8.43455157257924, -8.434551572595032, 1.5572720625332562e-11, -8.434551572582748, 8.434551572575094, 3.720484223697655e-12, 61.56544842741725, -8.434551572582897, 1.5039309730906592e-11, 8.434551572581233, 8.434551572576163, 1.1355898287158217e-11, 2.9715555554510997, -1.3698049404532566e-14, -7.130872259530724e-16, -8.503473311409894e-14, 2.9715555554541773, -1.719270009910638e-13, -5.613606278181065e-16, 6.217186255059045e-13, -2.4622777212342557, 2.891375336106237e-15, -3.1719638273585108e-12, 1.180236398483991e-11, 8.495488991877114e-13, -7.171649620966147e-12, 2.0106668231789063e-12, 0.0, 0.0, 0.0, 1.937110029447102e-15, -1.3379809570368857e-12, 7.540585841642125e-12, 2.9057019721881056e-15, -2.006971460943078e-12, 1.725662784538294e-11, 9.685507138767193e-16, -6.689904770956132e-13, 3.770292919052135e-12, 8.434551572579393, -8.43455157259518, 1.5572720622160422e-11, -8.434551572582897, 8.434551572575241, 3.720484221935538e-12, -8.434551572582897, 61.56544842741696, 1.503930972775801e-11, 8.434551572581384, 8.434551572576312, 1.1355898284269538e-11, 2.97155555555408, -1.3698049403963375e-14, -7.130872259442903e-16, -8.503473311050744e-14, 2.971555555557153, -1.719270011454806e-13, -5.613606278119149e-16, 6.217186247876419e-13, -2.462277720904121, -7.460520756268434e-25, -1.0229163427949266e-21, -1.6717967053652542e-20, -6.617216980327446e-21, -4.01292080600005e-21, -1.9706929762555624e-20, 0.0, 0.0, 0.0, -5.003055242966591e-25, -3.863268449322272e-21, -1.106524890952316e-20, -7.5045552129389165e-25, -5.794902678332683e-21, -3.548094520849482e-20, -2.501514956164551e-25, -1.9316342269186432e-21, -5.532624453641906e-21, -1.503930973915973e-11, 1.503930974773693e-11, -2.225058047792787e-20, 1.503930973090644e-11, -1.5039309733534735e-11, -1.2157866426661324e-20, 1.5039309730906592e-11, 1.503930972775801e-11, 70.0, -1.5039309741950002e-11, -1.5039309732892507e-11, -2.012080520581016e-20, 9.039457784892548e-10, 3.2716555345164627e-24, 8.699177198275827e-26, 2.1050389449939965e-23, 9.039457784780554e-10, -1.0411596899083996e-21, 3.989458692318919e-26, -4.9084276713875276e-21, 2.375316713270311e-09, -2.8913753365263466e-15, 3.1719638264595565e-12, -1.18023639956431e-11, -8.495489037143143e-13, 7.171649617764408e-12, -2.0106668365967064e-12, 0.0, 0.0, 0.0, -1.937110029727682e-15, 1.3379809543059764e-12, -7.540585848741321e-12, -2.9057019726089148e-15, 2.0069714568467148e-12, -1.7256627868786154e-11, -9.685507140170117e-16, 6.68990475730159e-13, -3.770292922601733e-12, -8.434551572577726, 8.434551572593517, -1.5572720636513207e-11, 8.434551572581233, -8.43455157257358, -3.720484230065141e-12, 8.434551572581233, 8.434551572581384, -1.5039309741950002e-11, 61.56544842742027, -8.434551572574648, -1.1355898297469268e-11, -2.9715555551662325, 1.3698049408146114e-14, 7.130872259458038e-16, 8.503473313707071e-14, -2.9715555551693105, 1.719270004094901e-13, 5.613606278038565e-16, -6.217186281477202e-13, 2.4622777222414607, -2.891375335967426e-15, 3.171963826955502e-12, -1.180236398875732e-11, -8.495489009071929e-13, 7.171649619612121e-12, -2.0106668282671253e-12, 0.0, 0.0, 0.0, -1.9371100293539943e-15, 1.337980955970595e-12, -7.540585844211163e-12, -2.9057019720484465e-15, 2.006971459343642e-12, -1.7256627854023446e-11, -9.68550713830181e-16, 6.689904765624681e-13, -3.770292920336655e-12, -8.434551572572655, 8.434551572588447, -1.5572720627362354e-11, 8.434551572576162, -8.434551572568507, -3.720484224972315e-12, 8.434551572576163, 8.434551572576312, -1.5039309732892507e-11, -8.434551572574648, 61.565448427430425, -1.1355898289113787e-11, -2.9715555554958275, 1.3698049405729514e-14, 7.130872259211127e-16, 8.503473312156602e-14, -2.971555555498907, 1.7192700085983339e-13, 5.6136062779682e-16, -6.217186260629545e-13, 2.462277721341666, -7.0773660938533e-25, -1.0141030064282715e-21, -1.5246623344321227e-20, -6.1221839653668125e-21, -3.869971813496072e-21, -1.8204759047353537e-20, 0.0, 0.0, 0.0, -4.742139339351649e-25, -3.603376334757592e-21, -1.0066950907648373e-20, -7.113183939656652e-25, -5.4050645062220444e-21, -3.252055082102117e-20, -2.371057750298363e-25, -1.801688169375845e-21, -5.033475452953144e-21, -1.1355898294920401e-11, 1.135589830254655e-11, -2.0280089514218755e-20, 1.1355898287158043e-11, -1.135589828977493e-11, -1.1180810884778524e-20, 1.1355898287158217e-11, 1.1355898284269538e-11, -2.012080520581016e-20, -1.1355898297469268e-11, -1.1355898289113787e-11, 70.0, 7.684263233192178e-10, 3.940080041171391e-24, 6.197810880038899e-26, 2.5264459428580894e-23, 7.684263233088871e-10, -9.720119374606547e-22, 2.331676989822014e-26, -4.543051867125583e-21, 2.088084760260548e-09, -1.3659923532007885e-13, -2.2372366231440306e-11, 6.779615921745698e-10, 2.0403077513910526e-10, 2.477033385650847e-12, 6.136915621737989e-10, 0.0, 0.0, 0.0, -7.694018548699543e-14, 9.339798942590563e-11, 4.5170558710060574e-10, -1.1540925062057616e-13, 1.4009698355113078e-10, 1.3118248867410136e-09, -3.847034857687496e-14, 4.669899514343442e-11, 2.2585279310437337e-10, -2.971555555279374, 2.9715555547708474, 9.038133656069574e-10, 2.971555555451111, -2.9715555555062774, 4.186147721191191e-10, 2.9715555554510997, 2.97155555555408, 9.039457784892548e-10, -2.9715555551662325, -2.9715555554958275, 7.684263233192178e-10, 194.5140999045879, -1.6389395477023718e-13, -2.2622711032772554e-14, -3.2486939729957303e-13, 124.51409990496201, 2.6696919276320473e-11, -4.42465975775088e-14, 1.5222174018686335e-10, 56.45649363174307, 4.769536029082635e-28, 7.023993277105744e-25, 2.8369594770948483e-24, 1.718715367539788e-24, 2.0855746245676168e-24, 4.846999550799124e-24, 0.0, 0.0, 0.0, 3.0660375371226045e-28, 1.1761691200393106e-24, 1.6061168390688396e-24, 4.599045426162904e-28, 1.7642536822159616e-24, 7.080996292565104e-24, 1.5330165442849865e-28, 5.880845593748368e-25, 8.030584211975497e-25, 1.3698049407623409e-14, -1.3698049407845517e-14, 3.6400217344825076e-24, -1.3698049404532101e-14, 1.369804940648749e-14, 2.665430227886521e-24, -1.3698049404532566e-14, -1.3698049403963375e-14, 3.2716555345164627e-24, 1.3698049408146114e-14, 1.3698049405729514e-14, 3.940080041171391e-24, -1.6389395477023718e-13, 70.0, 7.604648585216557e-29, -7.110695841187124e-26, -1.6389395476748755e-13, 3.389307248834904e-25, 1.2514660859839036e-28, 1.3061033264303625e-24, 1.346386239847982e-13, 1.974321396064535e-27, -1.5588485617511058e-26, 6.299841962557221e-26, 5.161524215340097e-27, -3.080258321476865e-26, 1.9393055298237166e-26, 0.0, 0.0, 0.0, 1.307322096950071e-27, -4.072822636892122e-27, 4.3791078071014425e-26, 1.9609831099266953e-27, -6.109233918878479e-27, 9.039824852111304e-26, 6.536610449434949e-28, -2.036411296436882e-27, 2.1895539021616075e-26, 7.130872259359181e-16, -7.130872260169798e-16, 8.489399181535403e-26, -7.130872259530799e-16, 7.130872259135244e-16, 2.578806557927503e-26, -7.130872259530724e-16, -7.130872259442903e-16, 8.699177198275827e-26, 7.130872259458038e-16, 7.130872259211127e-16, 6.197810880038899e-26, -2.2622711032772554e-14, 7.604648585216557e-29, 70.0, 3.4497328006143166e-28, -2.2622711032752533e-14, 2.8768462455492963e-28, 2.750856208288063e-29, 5.557008729882294e-27, 7.34667556915425e-15, 8.316007679962683e-27, 4.415019679546786e-24, 1.826247474264552e-23, 1.095733605258039e-23, 1.3125048636588034e-23, 3.082457288529138e-23, 0.0, 0.0, 0.0, 5.543209700753328e-27, 7.4449366577407e-24, 1.0345752735499141e-23, 8.31481189936831e-27, 1.1167404998014877e-23, 4.533424092725033e-23, 2.7716021331412606e-27, 3.722468327318578e-24, 5.172876375618807e-24, 8.50347331337103e-14, -8.503473313541414e-14, 2.3435367863626117e-23, -8.503473311409578e-14, 8.503473312640405e-14, 1.700513156652259e-23, -8.503473311409894e-14, -8.503473311050744e-14, 2.1050389449939965e-23, 8.503473313707071e-14, 8.503473312156602e-14, 2.5264459428580894e-23, -3.2486939729957303e-13, -7.110695841187124e-26, 3.4497328006143166e-28, 70.0, -3.248693972820304e-13, 2.1553675417024886e-24, 4.918514455968366e-28, 8.318123655583243e-24, 1.3107017224245564e-12, -1.365992353204848e-13, -2.237236623207131e-11, 6.779615921660642e-10, 2.0403077513562128e-10, 2.4770333833251253e-12, 6.136915621634553e-10, 0.0, 0.0, 0.0, -7.694018548726697e-14, 9.339798942383114e-11, 4.517055870950031e-10, -1.154092506209836e-13, 1.40096983548019e-10, 1.3118248867227408e-09, -3.847034857701081e-14, 4.669899514239717e-11, 2.258527931015721e-10, -2.9715555552824497, 2.9715555547739214, 9.038133655956505e-10, 2.9715555554541906, -2.971555555509353, 4.186147721128065e-10, 2.9715555554541773, 2.971555555557153, 9.039457784780554e-10, -2.9715555551693105, -2.971555555498907, 7.684263233088871e-10, 124.51409990496201, -1.6389395476748755e-13, -2.2622711032752533e-14, -3.248693972820304e-13, 194.51409990533625, 2.6696919275760882e-11, -4.424659757750493e-14, 1.522217401842774e-10, 56.45649363285477, -8.759443389257826e-26, -6.874089904086217e-23, -7.9363520364825515e-22, -3.354576659091637e-22, -2.42187625388696e-22, -9.935358589530761e-22, 0.0, 0.0, 0.0, -5.842067170299003e-26, -2.032176073083815e-22, -5.208284863771423e-22, -8.763087952296274e-26, -3.0482641119598215e-22, -1.7246555151900927e-21, -2.921026659587605e-26, -1.0160880374814597e-22, -2.6041424316787306e-22, 1.7192700054261053e-13, -1.71927000184937e-13, -1.0540489440931815e-21, -1.719270009910761e-13, 1.7192700081256666e-13, -6.003623029822222e-22, -1.719270009910638e-13, -1.719270011454806e-13, -1.0411596899083996e-21, 1.719270004094901e-13, 1.7192700085983339e-13, -9.720119374606547e-22, 2.6696919276320473e-11, 3.389307248834904e-25, 2.8768462455492963e-28, 2.1553675417024886e-24, 2.6696919275760882e-11, 70.0, -5.142790266404847e-28, -2.4910782429562164e-22, 9.505877291866885e-11, 2.0271691022619382e-27, -9.049155474080178e-27, 2.707223415338015e-26, -1.482602017406559e-27, -2.1079312059102404e-26, -2.4340736035155716e-27, 0.0, 0.0, 0.0, 1.3477429680788352e-27, -4.8730733775655876e-27, 2.0846731058815318e-26, 2.0216144221713948e-27, -7.309610033612773e-27, 2.830919464285097e-26, 6.738714807242386e-28, -2.43653667384499e-27, 1.0423365523657537e-26, 5.613606278001245e-16, -5.613606278438566e-16, 3.7496012242290664e-26, -5.613606278181159e-16, 5.613606277908304e-16, 7.897689117095238e-27, -5.613606278181065e-16, -5.613606278119149e-16, 3.989458692318919e-26, 5.613606278038565e-16, 5.6136062779682e-16, 2.331676989822014e-26, -4.42465975775088e-14, 1.2514660859839036e-28, 2.750856208288063e-29, 4.918514455968366e-28, -4.424659757750493e-14, -5.142790266404847e-28, 70.0, -2.3570815381379346e-28, 7.085466159097442e-15, -2.0294081170790613e-25, -2.9054714415798477e-22, -3.731370915112189e-21, -1.542736340164864e-21, -1.055217092801425e-21, -4.57731288674568e-21, 0.0, 0.0, 0.0, -1.356253969150811e-25, -9.235451164382539e-22, -2.4554963717589148e-21, -2.0343748722749606e-25, -1.385317675711819e-21, -8.04361931037673e-21, -6.781238792278664e-26, -4.617725586812665e-22, -1.2277481857310786e-21, -6.21718627522715e-13, 6.217186292848957e-13, -4.959117105653277e-21, 6.217186255058532e-13, -6.217186262581764e-13, -2.7850871451576484e-21, 6.21