 -2.8662276e-01   2.4444400e-09
 -7.9055753e-06   3.9138662e-08
 -2.0386564e-05   8.5490393e-11
 -2.2849415e-05   1.8405841e-12
 -1.7686899e-01   1.4418652e-08
  8.6117025e-06   7.7494313e-09
 -9.8939896e-02   1.1218923e-11
 -5.2197869e-05   3.4692269e-09
  1.7903724e-06   7.1798358e-09
  1.4695052e-02   8.7899441e-14
 -1.0137289e-05   1.3761876e-09
 -3.6310159e-06   2.7172209e-10
 -8.8122688e-06   1.2236988e-10
  4.3613081e-06   1.6613211e-10
  1.8554448e-06   4.5696279e-08
 -2.4991698e-06   2.5332332e-11
 -1.8168403e-07   2.3728928e-09
 -1.3910486e-07   2.6477833e-09
 -3.4712045e-06   8.1413987e-09
 -3.9110210e-04   8.5092653e-13
 -3.3027718e-05   2.2729736e-11
 -6.2545032e-06   3.0170911e-11
  1.6241716e-05   7.0357956e-11
  8.1705257e-05   1.0475394e-07
 -5.4819691e-07   8.3114058e-14
 -4.9896806e-07   5.4273119e-09
 -6.3855560e-07   8.6908457e-08
 -5.9824868e-07   1.0083762e-08
  1.0857058e-05   3.9156384e-10
 -7.1972536e-06   2.3155107e-07
  8.6638933e-01   3.0045313e-11
 -7.9891788e-06   2.4557325e-11
 -9.7428970e-02   1.3863071e-12
  7.2486408e-05   6.4846468e-11
 -8.0456471e-01   3.6205150e-10
 -1.1508124e-05   2.3109731e-10
  4.8250947e-02   1.4358354e-11
  1.0870276e-03   2.2046304e-17
 -4.4540036e-02   6.7838263e-11
 -2.9737465e-02   2.6704269e-10
 -2.4021871e-04   2.0895834e-13
 -6.0355937e-06   6.4091489e-13
  2.4807268e-05   2.1277903e-11
 -5.4408196e-05   3.7871745e-10
  1.2482295e-05   7.5380580e-10
 -3.1169038e-05   3.6508831e-11
 -7.2384428e-05   2.6761378e-09
 -4.6858520e-07   3.6938000e-12
  2.6388207e-05   4.6364490e-10
  8.6562353e-04   2.4835167e-09
 -1.3937183e-05   2.1738292e-11
  7.1751451e-06   4.2800249e-10
  6.3554216e-05   3.9245005e-08
 -4.3124951e-06   9.1003763e-08
  1.6496322e-01   1.6164970e-16
 -1.2767226e-05   2.4213773e-07
  1.7988126e-04   4.5262583e-12
  2.0384762e-06   1.7009872e-07
 -2.7659330e-06   6.2491082e-14
 -9.6969543e-06   1.4941932e-08
  1.6146323e-07   2.8179899e-08
  6.1963663e-05   3.9292430e-10
 -1.2904629e-05   1.9289880e-11
  5.8708538e-06   5.8397948e-08
 -8.7708777e-06   1.0077631e-07
  1.2716066e-05   1.1028350e-06
 -1.1771876e-05   3.9745682e-08
 -5.9885974e-06   8.9936829e-11
 -1.3297400e-05   4.8079123e-08
  1.1436478e-06   3.2918737e-10
  6.0902174e-05   9.5713559e-10
 -3.6838271e-06   7.4158440e-10
 -4.7287290e-07   4.0058783e-08
 -2.1965309e-06   3.8728019e-13
  2.0975300e-05   5.2909432e-09
 -3.8414128e-06   1.4503373e-06
 -5.5811192e-06   1.2705768e-06
  4.7226200e-05   2.0497957e-06
 -1.3050230e-06   4.2431307e-09
  1.2435495e-05   2.1997419e-09
  3.3115994e-05   6.9231232e-06
  2.0545393e-05   1.5342728e-08
 -1.4966114e-06   1.9136739e-06
 -1.3993614e-05   1.8772853e-08
  1.0831252e-05   3.1262656e-11
 -8.4531703e-06   1.2317748e-10
 -8.6961836e-06   2.0526631e-08
 -1.2653770e-05   4.7606775e-07
 -4.9699561e-06   2.1991959e-11
 -7.5885882e-06   1.2100800e-06
  1.3776917e+00   8.8627661e-11
 -6.6164169e-08   8.4639405e-06
 -2.1515074e-01   2.3817681e-09
  6.4065824e-07   5.8728508e-11
 -5.5226665e-02   5.8848482e-10
 -5.1215451e-05   3.7322891e-11
  3.9281629e-04   1.3776409e-13
  5.9174776e-02   4.9139829e-15
 -5.9911181e-05   2.5663342e-08
 -6.5858918e-01   8.8117419e-10
 -3.5967009e-06   1.2440989e-12
 -9.6606411e-05   3.3197174e-11
  1.1676935e-06   1.1774061e-11
  2.5831730e-06   1.3504184e-11
  1.5464880e-06   5.1239655e-13
 -3.1568576e-04   5.0960653e-09
 -1.3232803e-04   6.7040667e-10
 -6.1463768e-05   2.8350252e-13
  6.5555098e-05   1.1324103e-10
  8.1771959e-06   1.3097153e-10
  1.0646060e-05   7.5252326e-13
  1.9194460e-05   5.3359612e-13
  2.2262961e-05   3.9789542e-13
  7.4921591e-06   3.8337988e-13
  1.5055346e-01   3.1309327e-10
 -7.9591086e-07   1.4394354e-07
 -3.7245877e-06   2.7891064e-11
 -1.6944676e-06   5.4150973e-08
 -2.6551988e-05   8.5482739e-08
  2.5491304e-06   2.7225457e-09
 -2.2107528e-03   8.4862224e-09
  1.8585600e-06   4.1749094e-11
  3.0826379e-07   4.6434934e-07
  4.4942781e-06   5.4253650e-08
  1.0686721e-05   1.1691456e-09
  1.9169271e-05   1.7675168e-07
 -4.0784234e-06   3.9947928e-08
 -6.0657044e-06   1.9602406e-10
  3.6228489e-06   1.4458402e-06
 -1.5178321e-05   7.0958023e-10
 -3.1065741e-07   3.4221124e-12
  2.7507080e-05   1.1317724e-06
 -7.3502492e-06   9.5022045e-07
  4.0979114e-05   1.0564495e-07
 -1.3736981e-05   2.4045551e-07
  2.5872569e-05   2.1024225e-07
  6.2326217e-06   2.4893042e-11
  4.6287241e-07   6.6080204e-11
 -6.4485312e-06   9.0147820e-11
  1.9249230e-06   1.9409577e-10
  8.5102911e-06   6.5122748e-07
 -6.8845561e-06   5.2246736e-12
 -1.8427266e-07   3.6745710e-08
  5.4406992e-06   9.8183946e-08
  9.2565417e-05   1.8905198e-14
 -9.0630547e-06   1.5326500e-06
  4.4823078e-06   2.2372115e-09
 -2.4998561e-05   5.3693019e-11
 -1.0419067e-05   2.7138562e-08
  3.1064381e-05   1.2522644e-07
  1.1536857e-05   5.2510281e-06
 -1.0295704e-06   1.0396298e-09
  2.8197628e-06   3.7322877e-08
  9.0814946e-04   2.1000321e-09
 -1.1374543e-05   3.7723510e-07
  1.6747974e-06   4.2226524e-09
 -9.1681932e-06   7.9657305e-08
 -1.8804072e-05   2.0563731e-12
 -8.1815624e-06   7.8335307e-07
 -4.9856894e-06   4.0327550e-06
  4.6779728e-06   7.7200060e-09
  8.3397990e-06   1.1420059e-06
 -4.0468708e-06   1.2450091e-10
 -7.5962919e-07   7.7902158e-08
 -1.0318399e-05   1.1394166e-08
 -3.3511679e-07   1.5901079e-10
  5.7868469e-06   4.8888481e-13
 -1.4191409e-05   8.0582159e-11
 -8.5626443e-06   7.7894464e-09
 -2.1099256e-06   1.4165360e-08
 -1.1085013e-05   8.1620377e-10
 -1.4149264e-05   1.3806226e-07
 -2.0407945e-06   7.7379912e-07
 -1.3060527e-05   8.1073157e-09
  6.1758869e-06   6.7529118e-07
 -8.9394416e-06   3.3271891e-07
 -3.2772092e-05   8.0479978e-10
 -2.5466783e-05   1.2982439e-07
 -6.0324915e-06   7.9991574e-10
 -9.6460471e-06   5.5734918e-06
 -1.7619606e+00   1.5322889e-11
 -9.0008571e-06   4.4495030e-09
  2.3264149e-01   9.0669999e-11
 -8.9806402e-01   3.1591302e-10
  1.4834208e+00   4.2899946e-12
  5.4675352e-02   2.3143958e-09
  1.2765260e-03   4.8807705e-09
  7.0493401e-04   1.4986392e-16
  1.9734195e-01   1.6432006e-08
  4.8029602e-02   1.6671049e-13
 -4.6886921e-06   1.2609568e-14
 -1.2705764e-03   1.6107793e-10
 -1.3030751e-04   1.7994210e-12
 -4.7917301e-06   4.7432422e-09
 -2.9063752e-04   4.0880663e-12
  5.6436010e-02   4.5181246e-12
  1.3202986e-01   3.3221340e-12
  4.3922849e-04   6.8752271e-09
  2.3942928e-04   1.0046419e-13
  1.1840302e-01   1.5365488e-11
 -4.3430632e-06   1.2025766e-10
 -1.7601806e-05   1.3041024e-08
 -3.9343327e-06   8.2056922e-10
 -3.1227231e-05   1.4086341e-08
 -1.3429879e-01   1.0510580e-11
  2.1382752e-05   7.5528376e-08
 -1.0327170e-05   1.8155608e-07
 -2.9963296e-05   8.4019652e-11
 -3.3711261e-05   6.1758536e-09
  4.1844014e-05   1.1753452e-10
 -1.6561325e+00   8.1011837e-09
  2.5042473e-06   1.7444139e-06
  2.1469808e+00   7.9407453e-11
 -1.6969215e+00   1.1769435e-13
  1.3057508e+00   4.2545652e-13
  1.5510224e-01   9.4942370e-12
  2.5321260e-01   1.5864187e-12
  3.3479971e-01   6.7669919e-09
  5.8935565e-01   1.7463470e-09
 -5.6216770e-01   6.8151172e-11
 -2.0612357e-05   1.5125767e-07
 -2.4653807e-02   8.5964151e-09
 -1.7356626e-05   1.3818305e-08
 -2.9653477e-06   3.3517911e-12
 -1.4502504e-05   4.9316419e-12
  2.4900441e-01   5.7865802e-11
  2.0220599e-01   3.3033315e-13
  1.1563781e-02   1.3093560e-13
  5.8285263e-05   1.1097705e-09
  2.5253907e-02   9.5300470e-09
 -2.0764807e-04   2.3897500e-09
 -3.5738121e-05   2.0219875e-09
 -2.0159023e-02   8.4109161e-12
 -4.2836268e-06   9.5364761e-10
 -2.6611355e-01   8.9763547e-10
  2.0471666e-06   6.9472744e-10
  9.6651013e-07   3.0372200e-09
  1.2804311e-05   3.5680102e-08
  9.2956063e-05   1.7261400e-14
 -3.8556223e-06   2.4162010e-09
  1.1952988e-01   8.0087976e-12
  2.8739867e-06   7.2850912e-07
 -2.5255656e-06   1.1971308e-11
  2.4530825e-06   7.0308250e-13
 -1.7696705e-04   4.8226539e-10
 -4.2719199e-05   3.6581536e-15
  6.9441870e-05   3.5951678e-15
  1.0291105e-03   7.2386059e-13
  1.9758127e-05   1.0979356e-10
  1.9575763e-02   8.9662916e-11
 -4.0740301e-06   7.5247065e-08
 -4.3935356e-07   3.7151171e-09
  3.0973174e-06   6.4646741e-09
 -7.7049044e-06   1.4573443e-11
 -2.4963031e-04   9.0076036e-09
 -1.2741004e-04   3.9585513e-16
 -1.7984281e-04   3.3982203e-10
  1.9332922e-05   9.7826365e-11
  1.1729483e-04   2.4066799e-11
  8.4888702e-03   5.0284371e-10
 -2.4073215e-06   9.7900787e-10
  4.4447370e-04   1.0927394e-10
  1.8347408e-04   3.5154640e-11
 -6.9917041e-05   4.0218149e-09
  1.8635338e-02   1.0019490e-14
 -5.4729367e-06   6.0642583e-07
 -5.3026506e-06   3.9684253e-10
  6.3656771e-06   3.1819148e-14
  1.4086992e-05   5.3197004e-12
  2.0811985e-05   1.4131925e-09
  4.8193030e-02   2.1025865e-11
 -2.4648139e-06   5.5269442e-07
 -2.1365533e-06   6.1817990e-10
 -7.5294825e-05   6.5586800e-11
 -1.8118627e-02   4.7946537e-13
 -4.1581786e-04   1.7265162e-08
  3.2105723e-07   5.6196792e-12
  6.9193070e-06   2.4611677e-09
 -6.2875642e-07   1.3915255e-10
 -1.0862448e-03   9.8980329e-13
 -5.4480374e-06   6.1950600e-10
 -4.4494138e-07   2.9554425e-11
  2.7794871e-05   2.4170845e-09
 -8.1715434e-06   6.4119338e-10
 -1.0096906e-05   9.3390762e-09
 -5.6467619e-04   3.3801391e-12
 -1.1142103e-05   5.3007663e-12
  4.6940231e-06   2.0620963e-08
  7.8426747e-06   2.6909088e-11
 -8.7028748e-06   2.7757885e-11
  1.0970203e-05   2.4369349e-08
 -1.0964197e-06   2.5965046e-11
  3.8260009e-06   6.5717304e-10
  2.0813593e-06   2.2988033e-08
  1.7698334e-03   6.5491257e-10
 -3.5850499e-06   2.1329145e-06
 -5.5789760e-06   2.1676058e-10
  1.8329122e-06   3.3489322e-08
 -2.3019279e-06   7.0342409e-08
  1.0258967e-06   4.6291706e-07
  1.0513257e-05   4.7258868e-09
  4.8764855e-06   2.4471274e-07
  2.3377284e-05   1.8704020e-06
 -6.2765012e-06   9.0752129e-13
 -1.7959514e-05   1.2179997e-07
 -8.2903707e-06   2.4761324e-08
 -1.9202898e-06   5.8156392e-08
  8.9784462e-06   1.5151335e-09
 -6.0053740e-06   2.0976620e-11
 -1.6483802e-05   7.7879001e-09
  1.4347938e-07   7.4072939e-09
 -4.1804057e-07   4.5886788e-09
  7.8748890e-06   2.1165190e-10
  3.7179793e-06   3.9739216e-08
  6.5046975e-06   3.8187324e-08
 -2.0482914e-06   1.9886970e-09
  3.0600966e-06   4.3730279e-07
  6.5430604e-06   5.1868892e-07
  3.1093998e-06   3.1188986e-08
  1.3910644e-05   1.2827327e-09
  8.9121904e-06   2.1321043e-08
 -8.7714980e-06   6.0611658e-14
 -1.1680832e-05   3.1400381e-12
 -2.2939651e-06   1.5039846e-10
 -3.3271526e-06   7.8025330e-08
 -4.3135286e-05   3.0762993e-07
  4.2982724e-06   1.5629648e-07
 -1.8306697e-05   1.1900418e-08
 -2.6042240e-05   6.3465400e-11
 -1.3104348e-05   4.7426649e-08
  9.3491121e-07   8.4908254e-07
 -1.4623403e-05   9.1137178e-09
  6.8176123e-06   1.0899038e-09
 -2.4682155e-05   1.3014462e-06
  7.2489260e-05   2.7182224e-08
  4.2959805e-06   5.2897380e-09
 -8.5733816e-08   1.5762599e-07
 -7.0558672e-06   2.9437038e-08
  5.8360581e-07   1.6984397e-07
 -9.1620341e-06   1.6652992e-08
  1.1139557e-02   8.0910269e-07
  2.2019716e-05   2.8647221e-06
  4.9455020e-06   3.6043815e-08
  6.3253838e-06   8.8221071e-07
 -2.7525198e-06   1.5245426e-07
  1.1754465e-05   8.6401031e-10
 -2.7740120e-06   1.3057361e-09
 -3.1758220e-05   7.4980366e-14
 -2.0621408e-05   8.9647351e-08
  4.7834596e-06   1.3927001e-07
 -7.3221651e-07   2.0279676e-15
  1.3044316e-06   2.7819881e-17
 -4.8371971e-06   5.3288868e-08
 -8.5871270e-06   4.3004239e-10
  6.6640670e-05   2.0966508e-13
  8.0910613e-05   3.0090446e-09
 -8.6816472e-06   2.1581744e-07
 -8.5310050e-05   5.9782725e-09
 -1.2838718e-05   3.4850584e-07
 -1.6785522e-06   1.9878345e-10
 -1.2434560e-05   1.0130274e-08
  7.6439446e-06   1.8717411e-07
  4.8855301e-05   3.6356831e-09
  1.6216329e-05   1.1711002e-06
 -5.4995235e-07   4.3400691e-10
 -2.1661190e-05   1.0737893e-06
  7.3912902e-06   9.8242282e-08
 -1.0449300e-05   5.3304763e-11
 -5.6073268e-06   5.2351059e-08
  5.5943747e-06   1.3463201e-08
 -9.8250284e-06   6.9747506e-07
  1.2804340e-05   2.8342126e-06
 -4.9999380e-05   8.9369235e-07
 -5.4442521e-06   1.8705755e-10
  4.6234200e-06   3.6111178e-10
 -3.8136895e-06   3.9421022e-09
 -6.0782736e-07   2.6026037e-09
 -6.5634922e-06   6.1881295e-08
  2.9241587e-06   5.6678159e-13
  1.5329747e-04   7.1660518e-11
 -1.3692097e-05   1.2952790e-07
 -1.5625306e-05   1.2689342e-06
 -7.5741045e-06   1.6527865e-07
 -8.8588931e-06   3.2679909e-06
  4.8423558e-06   1.9958726e-07
  7.1671857e-06   6.9794531e-10
 -1.1094459e-04   3.7600789e-14
  1.3217100e-05   2.0468144e-06
 -2.2899787e-06   2.4937251e-06
 -5.9636125e-07   1.2729463e-09
  5.4855565e-05   8.3763907e-12
  5.9451231e-06   1.7279199e-11
  7.0130933e-05   1.8505644e-14
  1.5651277e-06   2.4725350e-10
 -3.3861696e-08   2.0473152e-10
  1.1446520e-05   4.9844378e-08
  1.2879238e-05   3.4823546e-12
  1.9232505e-06   1.5760037e-09
 -7.2177208e-06   1.8286704e-10
  1.6744641e-06   7.4322361e-11
 -1.9311276e-05   5.4007528e-12
  5.4890902e-06   5.8287504e-09
 -5.8093352e-05   8.0075504e-12
  2.4487341e-05   3.6835058e-08
  3.6278345e-07   2.7450073e-12
  2.6516473e-05   1.2855963e-07
 -8.9667428e-06   2.4609144e-09
  1.9833140e-06   8.3383487e-09
 -4.2420224e-06   4.4456701e-08
 -9.9393628e-06   1.7652781e-08
 -8.3864852e-06   2.4605862e-08
  8.0543072e-07   3.1113183e-07
  8.5696220e-06   1.1881972e-06
 -5.2290252e-06   3.0159941e-11
 -1.0927282e-05   9.7007038e-12
  3.6722071e-05   4.0662482e-09
 -1.7577300e-05   2.3807411e-07
 -7.2948219e-06   2.2817924e-08
  5.3014428e-06   1.2645316e-07
  1.1152269e-05   2.1815676e-12
  5.2276349e-01   1.1143768e-09
  2.9771772e-01   1.0272329e-08
 -1.1578691e-01   1.6142943e-12
 -8.8736612e-01   1.6588733e-10
 -6.5672612e-01   1.7347801e-09
 -1.4840303e-02   6.9022912e-11
  9.2200184e-01   6.9305526e-09
  5.7380217e-01   1.3757273e-09
 -3.5091418e-01   3.4918488e-11
 -5.1089507e-02   2.1361182e-10
 -2.8572538e-01   3.6997217e-13
  1.1632375e-01   4.8795816e-09
  1.5811758e-01   5.3033439e-10
 -2.8261906e-01   3.8698823e-12
  2.9733884e-01   9.2436425e-10
 -6.6846251e-01   1.3488778e-09
 -3.0921081e-01   3.5002740e-11
  2.1329267e-01   1.2965594e-11
 -1.5474499e-06   9.7635078e-10
  4.6327710e-01   1.1044078e-09
  2.6576787e-02   2.5897712e-10
  1.8227841e-01   1.3399269e-09
  4.0905106e-01   3.1148695e-12
  1.8587840e-03   2.1415845e-11
  1.0953871e+00   2.1338986e-11
  3.5235589e-05   6.2859440e-11
 -4.7009005e-04   1.9490139e-11
 -9.9356839e-06   1.0927914e-09
 -4.1006730e-05   6.0492931e-09
 -6.5999620e-02   2.0604076e-09
  8.3206387e-06   4.9850690e-10
 -3.1616677e-05   1.1732566e-06
  5.4423072e-06   1.1854665e-08
 -7.0707374e-06   1.4091812e-11
  9.8167175e-06   9.8350084e-10
 -1.1138902e-05   1.4472856e-14
 -2.8574112e-07   1.1762102e-07
  1.2250686e-06   1.1772184e-09
  6.2005251e-06   1.0001655e-06
 -2.9640269e-06   6.6926548e-10
  6.9362891e-08   5.1494535e-08
 -6.9799732e-08   2.7274594e-10
  8.2968463e-06   3.6052021e-09
 -2.7668748e-06   1.5325513e-08
 -7.8247504e-06   5.9722545e-08
  2.8542947e-05   1.4438485e-12
  3.4075914e-05   1.6622654e-13
 -5.5431467e-08   2.8964433e-09
  3.6908307e-06   1.1903757e-08
  1.6096864e-04   7.2312345e-10
 -3.1900561e-06   1.1663363e-13
 -5.7239970e-07   1.7497575e-07
 -3.7018710e-06   1.7650690e-08
 -2.2321008e-06   1.7645218e-06
  1.7038692e-05   1.7978666e-06
 -1.1012796e-05   2.7489852e-08
  1.4400892e-05   3.3409384e-07
  7.2046100e-06   3.6671594e-08
 -5.5538649e-06   1.2402320e-11
  4.6151934e-05   4.0970387e-09
  8.2693168e-06   1.3351206e-08
 -1.0584871e-05   6.3113443e-09
 -4.1930100e-05   4.0578016e-08
 -2.3441358e-05   1.7792969e-06
  3.3824990e-06   4.4200223e-11
  1.4419652e-05   9.4508025e-08
 -3.1870220e-06   1.0253858e-08
 -1.5579732e-05   1.7872820e-08
 -1.3452521e-05   9.0590947e-07
  6.0989632e-06   2.2230048e-11
 -2.0145153e-06   1.2742769e-09
 -2.9853363e-05   2.7515459e-09
  1.3669536e-07   4.4656012e-10
 -1.2263351e-05   4.6127130e-12
  1.5863232e-05   6.0375747e-08
  8.1799931e-07   3.1231116e-06
  4.3019196e-07   5.3344330e-12
 -6.2505210e-06   4.6054233e-10
 -7.5731391e-06   4.7725468e-08
  4.6542216e-05   1.9060563e-12
  6.9349085e-06   1.4336659e-07
 -1.3470697e-05   4.2667220e-12
  2.3220800e-05   1.9175151e-07
  4.9567745e-05   8.3310141e-07
 -2.0090318e-05   1.3282229e-09
 -3.0369076e-06   2.3486715e-08
 -2.3077419e-06   1.2711333e-08
  2.4824194e-04   3.7170919e-15
  3.9909686e-08   8.7026936e-10
  2.3682599e-03   2.5461172e-10
  3.4433205e-02   1.1991748e-10
 -2.1811270e-06   2.8732492e-08
 -6.0780457e-07   2.2105902e-11
 -3.5192777e-06   1.2733488e-11
 -4.2998447e-05   2.2557563e-13
  4.6718907e-07   1.1015252e-11
  1.3658605e-06   2.9205405e-11
  3.0576331e-05   1.3552086e-10
 -9.4279840e-06   1.9576547e-08
  1.7531814e-04   1.3857959e-12
 -1.9099665e-05   8.8237742e-12
  9.8760720e-06   2.5778848e-11
 -6.1663231e-05   5.4961757e-11
 -3.3218187e-04   2.0554664e-11
 -7.2479836e-04   3.4385683e-18
  6.6809821e-06   2.1614128e-12
 -7.9923766e-06   3.0407288e-11
 -2.3005010e-05   1.1152733e-11
  7.0916765e-05   3.0163605e-10
  1.5075004e-02   8.0019952e-10
  1.7552723e-06   9.3001645e-08
  1.6805808e-07   6.0626055e-09
  5.8012516e-05   4.1569148e-08
  1.0529259e-04   2.9633411e-09
  2.6809772e-05   1.9022797e-09
 -5.3878728e-07   2.0198789e-09
 -5.7813304e-06   6.4694389e-10
 -3.3653130e-05   2.0291459e-12
 -2.5231332e-06   2.7203184e-11
 -2.9876171e-06   6.3666641e-12
  3.1229658e-03   3.7081924e-09
 -2.7992035e-05   2.5664961e-09
 -6.8768932e-05   2.3322201e-08
 -2.4147781e-05   1.1395230e-09
 -1.5356847e-04   2.0398509e-11
 -2.8455515e-05   1.7019448e-06
  1.1404783e-05   2.7031732e-07
  3.8924054e-06   3.3022921e-08
  2.0351147e-06   1.0396100e-12
 -4.4855778e-06   8.2445268e-08
  3.9504343e-06   4.9967730e-07
  1.7789916e-05   7.3293915e-10
  3.5507437e-06   4.1225283e-07
 -1.3629561e-06   3.9883288e-10
 -7.1758864e-06   1.3888609e-06
 -9.4816423e-06   2.2885898e-11
  1.2004226e-05   2.0540702e-08
 -1.7854927e-05   1.7282153e-07
 -6.8228887e-06   1.3298056e-07
 -2.2336963e-05   4.2913416e-11
 -1.4582081e-04   2.3905004e-08
 -6.1037967e-06   3.0644311e-12
 -1.0734963e-05   2.3358263e-08
 -7.6860060e-06   2.3179936e-09
 -8.1007547e-06   1.2738265e-07
 -3.3713317e-05   2.8760716e-09
  7.5823186e-06   1.4666884e-10
 -4.6797246e-07   2.5021194e-07
 -6.9996156e-07   2.8237153e-07
  1.8211975e-05   3.0715931e-08
 -2.4078460e+00   2.2615216e-09
  9.3636743e-07   8.9446750e-10
  1.2845887e+00   4.6139478e-11
  2.7058520e+00   2.3149610e-08
  6.7732982e-02   2.1921933e-12
  5.9364928e-04   4.1058790e-10
 -3.7024748e-01   1.6536355e-12
 -5.3527970e-03   3.4387387e-10
  9.3033264e-04   2.8577708e-11
  7.4330550e-01   3.7172706e-11
  1.0931610e-01   2.2600508e-09
 -3.2503179e-01   4.4320259e-10
 -8.0107376e-02   6.3175094e-13
  1.7072385e-05   1.5355401e-09
 -1.0348450e-01   7.7466025e-15
  1.1705975e-02   6.8069286e-11
  7.0883639e-02   1.9437502e-13
 -6.8642579e-02   6.6801439e-12
  9.7226084e-06   3.9348469e-10
 -2.6236793e-01   9.9130115e-10
 -5.3328413e-06   5.4686646e-12
 -2.1182969e-02   7.0618776e-12
 -7.7850953e-02   6.2974932e-09
 -2.2663781e-04   1.6860202e-11
 -4.9604985e-01   2.1010780e-12
 -3.7479533e-06   8.3905599e-10
  1.2948066e-05   1.1514969e-08
  1.4439473e-05   7.7627227e-08
  8.2183451e-06   8.0242424e-10
  4.3885276e-04   1.6086355e-16
  1.0323351e-05   4.4074259e-06
 -6.2090228e-05   2.4897669e-12
  6.8318896e-06   3.9540447e-11
 -2.2848948e-05   5.4774754e-09
  4.6711011e-06   2.2831729e-08
  8.3060377e-06   2.4276080e-06
 -2.5335608e-05   8.9730605e-07
  1.1329493e-05   3.8327244e-08
 -6.0353568e-06   2.9933375e-07
 -2.0212867e-06   3.0467024e-09
 -1.6571088e-05   3.5278893e-09
  2.2363205e-05   1.5317403e-06
 -8.4541134e-06   8.4952959e-14
  1.9476627e-05   2.7869224e-13
  3.1357122e-05   5.5365938e-11
  4.0447435e-06   8.7476394e-07
  3.0078713e-06   2.8504152e-07
 -2.2780645e-05   3.0350456e-08
  2.9637735e-05   7.0902275e-09
 -3.2764490e-07   1.9405315e-10
 -2.7908200e-05   3.9425455e-12
 -8.0994346e-07   1.0165350e-08
  1.7083740e-04   1.2266100e-09
  2.1013202e-06   3.1714562e-12
  1.0064256e-05   1.6294514e-09
 -2.0290825e-06   6.9065660e-12
 -6.7931919e-06   9.6695913e-09
 -1.9290501e-07   8.3997809e-12
 -2.8207280e-06   1.5435585e-12
 -7.4429495e-06   4.1742774e-09
 -1.4042642e-04   7.0985046e-10
  9.6796457e-06   2.1610239e-08
  8.4579694e-09   2.6597615e-06
 -2.9733653e-06   3.9380585e-10
 -7.7956847e-06   2.5332647e-10
 -3.9939630e-07   4.9138282e-10
 -5.5063606e-06   4.6023128e-08
 -7.8921512e-06   3.6641649e-14
 -8.6595710e-06   1.0445159e-09
 -3.2583790e-05   1.6960384e-10
 -2.2716382e-05   3.1810319e-07
 -1.7478543e-06   3.5552519e-10
 -5.0277316e-07   8.9036967e-10
  2.5787242e-05   3.8011329e-08
  1.7653405e-05   1.8730040e-08
 -5.4506995e-06   1.4103306e-10
 -1.5195335e-05   7.8137532e-08
  1.3402347e-06   1.8551061e-10
 -1.3255998e-05   5.1141797e-08
 -1.3880071e-05   2.5210459e-08
 -1.7846200e-05   4.7095834e-09
  5.1901866e-06   7.0188172e-10
 -2.0927486e-05   1.0171029e-10
  1.7879502e-05   2.0201505e-09
 -3.5193378e-07   1.7252283e-07
 -3.7254397e-06   8.7339072e-07
 -2.6702574e-08   3.1486169e-07
 -2.2977789e-05   1.1221587e-10
  3.8764097e-06   2.9852263e-09
 -1.4784010e-05   1.8303535e-10
  6.4001856e-06   2.0261044e-09
  7.2285711e-06   1.0502350e-08
  2.1839400e-05   6.8275802e-11
  1.8700332e-05   4.2927064e-14
  8.7370354e-06   2.5331170e-08
 -7.4110812e-06   3.6027564e-13
 -1.1374750e-06   1.1058013e-11
 -2.6575551e-06   2.4156964e-06
 -2.4105447e-04   6.0668859e-10
  2.3421317e-06   2.5564884e-09
 -1.3754571e-05   2.7194275e-08
  2.0051615e-05   7.5332596e-14
 -1.6739803e-05   1.1911483e-07
  3.4554009e-08   1.3411596e-08
  1.5365227e-05   3.2073910e-07
  4.6854566e-06   1.3710010e-09
  1.7497847e-05   9.3797823e-09
  8.4514613e-06   1.2686448e-06
 -2.2636161e-06   1.3226518e-06
  1.4519443e-06   6.5901851e-08
  3.1329258e-05   5.1205268e-07
  8.5812708e-06   1.6280653e-09
 -1.7973651e-05   1.1889004e-07
 -5.3959188e-06   1.1475055e-09
 -2.1088825e-05   2.8744495e-07
  1.3115740e-05   3.4102417e-13
 -2.0902780e-05   2.0854326e-07
  1.3579777e-05   2.5984551e-07
 -1.5763828e-06   6.9746806e-11
 -1.6414100e-05   7.6852685e-10
 -7.8916274e-02   1.0121083e-10
 -3.8732746e-06   1.9183622e-07
  3.7532757e-04   5.0482778e-11
 -1.3907453e-07   2.0397994e-09
  9.6181830e-05   6.0154143e-12
  1.3013602e-06   2.3086934e-10
 -7.3158546e-05   3.0290837e-14
 -1.0932581e-04   1.5270002e-10
  9.3433235e-05   1.1731736e-11
  3.6613299e-05   9.9511909e-12
  1.7306024e-04   3.0969673e-09
 -1.8283245e-05   1.2034256e-08
  1.5056181e-04   4.2153179e-09
 -8.7378049e-07   1.0656480e-09
  2.3878076e-06   3.8026275e-09
 -8.6405189e-06   1.9363754e-10
 -1.0812459e-04   5.4248247e-12
  6.6274088e-06   1.2958247e-09
  5.6465910e-06   1.1778371e-11
  2.9692235e-06   7.0644933e-13
  1.5376016e-05   5.4184857e-09
 -9.4569923e-06   2.5534588e-11
  9.1407210e-06   6.1135282e-08
  5.2701307e-06   1.8854250e-10
 -2.0140520e-05   3.8957944e-09
 -5.1481520e-06   1.9095083e-07
  1.6302494e-05   1.6278372e-07
 -8.2559609e-06   2.6738025e-13
  2.5925103e-05   6.8551170e-10
  3.5316402e-06   1.6516678e-07
  7.3488940e-05   9.4365857e-09
 -1.4748701e-05   1.1529780e-08
 -5.2212922e-06   1.6971164e-08
  2.9781486e-05   2.4470488e-08
 -3.1332734e-06   2.8416276e-11
  1.6206972e-05   4.7479637e-10
 -1.2880098e-05   1.9606192e-12
  2.6007265e-05   1.7380692e-12
 -1.8703735e-05   5.3866920e-12
 -1.1649337e-05   2.9321545e-11
  1.6024379e-06   6.6224274e-08
  1.2604941e-05   2.7268692e-09
  1.0389414e-05   1.4002108e-08
  4.5728775e-06   5.9811850e-10
  2.0897862e-06   6.8009132e-07
 -3.2157236e-06   2.1843177e-06
 -2.2009210e-05   3.0195776e-14
  1.7740599e-06   6.0994787e-10
  8.2623537e-06   7.1624008e-08
  7.6752919e-04   5.3464635e-08
 -7.6434759e-07   6.8301025e-11
  9.2226855e-06   2.1071603e-06
  3.7138631e-07   5.6245605e-15
  8.3960294e-06   2.8782182e-07
  1.6928021e-05   1.1607879e-06
  9.9430599e-06   6.2102174e-08
 -1.6641219e-06   1.1115634e-07
 -7.8058765e-06   2.4423349e-08
 -1.3777443e-04   4.6345688e-11
  1.1163183e-05   1.0215416e-06
  4.3294758e-06   4.5415297e-10
  6.4243750e-06   2.4389005e-11
 -6.1211767e-06   1.1113119e-09
 -1.8173694e-05   1.8283022e-10
  3.2163116e-05   9.1792192e-11
 -5.6914341e-06   8.9864199e-07
  3.7766470e-06   2.1839628e-07
  1.1055300e-05   1.7125344e-10
  2.5031271e-05   3.0643231e-11
 -1.3888579e-05   2.8147290e-11
  8.0243553e-06   1.6470312e-07
 -2.7950389e-07   1.0271827e-09
  4.4575027e-06   8.1501185e-13
  1.8408176e-05   8.3092218e-09
 -5.3403932e-05   5.8267371e-08
  2.5733001e-05   1.2763318e-08
 -9.4161260e-07   2.3305097e-10
  6.0279308e-07   2.7128111e-12
 -1.3981843e-05   1.5679244e-10
 -9.8871415e-06   7.4957535e-07
  6.6975908e-06   5.2516507e-09
  3.3498989e-06   1.1756046e-09
  2.9240909e-06   3.6274276e-12
 -1.1751777e-06   5.1784979e-14
 -6.0090247e-06   1.6794898e-08
  2.5472293e-06   1.7609385e-09
 -7.0309779e-06   1.3073551e-10
 -2.6768787e-06   3.3708447e-10
 -1.6118551e-05   2.4229480e-11
 -2.2013850e-05   1.2393255e-07
  1.9021339e-03   4.7903043e-10
  1.4176144e-06   1.0888010e-08
  7.3669499e-01   4.4326981e-12
 -1.7293260e+00   1.8970232e-11
  3.5151798e-01   1.7311618e-09
 -1.3121430e-04   1.3095026e-15
  8.6561451e-04   1.0232873e-11
 -1.6795862e-05   1.0432281e-08
  5.4233087e-06   3.6211655e-14
  7.2208956e-02   2.4688882e-09
 -7.2582938e-05   7.9521651e-09
  4.9970684e-05   9.0352842e-10
  8.1241029e-05   9.1625645e-11
 -1.7333958e-05   5.3638799e-12
 -1.6773352e-05   2.4724898e-09
 -3.8211747e-06   1.3870037e-08
 -6.1127695e-04   4.6333287e-10
  7.1028589e-05   3.8797729e-11
  5.8070583e-07   3.0976049e-13
  1.4686064e-01   6.6100641e-13
 -3.7264258e-06   7.9927752e-08
  3.1471733e-04   2.6049536e-11
  5.7415884e-05   1.6398356e-09
 -1.0604987e-05   1.2142294e-10
  3.6667968e-06   1.1627274e-12
  8.5967431e-06   6.1143197e-08
 -5.3730005e-06   1.6972555e-08
 -1.0450877e-04   6.6659178e-11
 -2.6312297e-05   3.0891445e-07
  6.0432177e-07   6.4119215e-10
 -1.6351261e-04   3.0987016e-10
 -8.5616887e-07   2.7103868e-08
  7.4265931e-06   2.7497093e-11
 -2.8003447e-04   3.5907541e-10
 -4.4360627e-06   1.7057660e-09
  4.3705313e-06   9.2563262e-08
 -6.4095324e-03   3.0042002e-09
  7.1428385e-06   1.0999156e-10
  3.8205358e-06   1.6688090e-10
  1.6422193e-06   1.5884441e-12
 -8.9101359e-06   4.5916664e-08
 -1.0454132e-06   2.5092806e-11
 -1.8096620e-06   2.3191276e-09
  1.3699442e-06   5.1460950e-11
 -3.8616868e-06   9.6030274e-11
  2.2207647e-05   5.6612295e-11
 -5.6344152e-06   1.5195347e-07
 -1.5896941e-05   4.2155973e-10
  4.4926924e-06   3.0998912e-10
  3.7113912e-06   4.9957891e-09
 -1.3896797e-05   2.6498283e-11
 -1.8257228e-06   5.4711313e-10
 -6.6130492e-06   5.3535659e-10
 -9.5861506e-06   5.2591492e-10
 -2.8771754e-05   8.2478842e-09
  1.3897379e-05   2.2111692e-07
  9.0684972e-07   8.7488974e-12
 -4.2218003e-06   6.7616468e-10
 -3.8796898e-08   5.4593136e-11
 -8.2058228e-05   5.0766628e-13
 -1.7718993e-04   5.6584910e-11
 -3.7343611e-06   8.0350284e-12
  1.3038158e-04   3.3114800e-12
  5.9221944e-05   1.9380380e-09
  3.1409330e-05   1.5803164e-10
  1.0464486e-05   5.9895315e-09
  2.7987987e-06   1.4758551e-07
  4.8588086e-06   1.7540586e-09
 -8.1677481e-06   9.9631214e-10
  1.1054049e-01   1.8346687e-11
  5.1446125e-04   7.5751592e-09
 -2.4867622e-05   4.4260688e-09
 -1.7793900e-05   5.3171574e-09
 -1.1769979e-05   2.1772710e-09
 -5.1529796e-06   9.4840726e-11
 -1.2696125e-04   2.0796054e-10
 -1.0284206e-05   1.1477780e-08
 -1.0796263e-05   4.2227478e-11
 -2.4167133e-05   1.9728875e-08
 -6.5916993e-06   4.5431103e-10
 -9.5490068e-05   3.1545547e-08
  5.9299909e-06   3.5727191e-10
  1.0325213e-05   1.6978138e-08
 -1.8741006e-05   2.3081148e-07
 -1.4383470e-05   1.1178511e-07
 -2.6221220e-05   6.5784196e-09
 -1.5785020e-07   9.6644619e-12
  4.2866818e-06   3.3079289e-08
 -5.2639075e-07   1.6960445e-08
  2.7306012e-05   2.9604763e-07
  6.4126991e-02   1.6722110e-10
  5.7564317e-05   2.7488979e-06
  3.7247539e-06   1.4182957e-12
  4.4131808e-05   4.1945638e-13
 -4.5992176e-05   1.4838983e-09
 -4.6515488e-06   5.4796451e-10
 -5.7417105e-06   9.3141328e-10
  1.1545681e-05   4.2158988e-11
 -2.9313042e-06   1.4272035e-10
 -4.4051492e-05   2.2253061e-18
  6.7858127e-07   1.9106778e-09
  2.1298662e-04   1.6529871e-08
 -5.8771484e-06   5.6830365e-12
 -1.1451923e-05   4.2600307e-12
 -4.1758045e-05   4.3130736e-08
  8.5187202e-07   7.8806241e-12
 -7.3516426e-06   3.2192776e-08
 -6.3657282e-08   8.1754715e-13
  1.0416189e-05   1.2046795e-08
  3.8691444e-04   4.8578009e-13
 -5.2413543e-06   9.3274650e-13
 -3.6973644e-05   3.5918934e-14
 -4.3955101e-06   5.7740108e-13
  8.6697502e-05   1.8814504e-07
 -2.9288428e-06   2.1183820e-10
 -1.7792132e-05   4.2533586e-09
  6.7192536e-06   2.4198492e-08
  7.6029421e-05   5.4695231e-14
 -1.9907691e-06   5.5367191e-09
  3.5256735e-06   1.1661905e-10
  8.2800978e-01   7.9680779e-10
  8.7326400e-02   2.1027163e-15
 -8.1153678e-07   3.3557445e-08
 -2.5549917e-02   8.3882610e-16
  6.2203249e-08   1.0171008e-08
 -7.8365720e-06   7.8744620e-09
  4.9307670e-02   1.1023577e-10
 -4.8018461e-01   8.8658242e-10
  6.6429369e-02   2.0044345e-11
  1.1568705e+00   2.3489850e-09
 -6.6483926e-07   3.7929353e-09
 -5.6149402e-06   7.6472855e-09
 -1.6648910e-06   4.0429378e-15
 -1.5429234e-05   1.4225758e-10
 -1.1749838e-01   6.1054425e-11
 -9.9902281e-06   8.7009844e-10
 -6.1006149e-06   1.1138052e-08
  4.2575973e-01   1.2953342e-17
  4.4513869e-04   3.8769709e-08
 -1.4900935e-01   1.2866647e-12
 -1.7372363e-04   2.8736066e-13
 -2.1652126e-05   7.3628632e-09
 -1.7078692e-01   5.7811960e-11
 -4.9955094e-01   6.2045855e-11
 -2.4016761e-05   2.0827355e-09
 -6.0935549e-06   2.5037084e-09
  6.6341639e-01   3.4822531e-10
 -5.2627468e-01   8.3366580e-10
 -1.0970587e-02   4.0491560e-12
  6.0045880e-01   4.8514760e-16
 -4.6252054e-01   3.2210826e-10
  1.2061555e+00   8.6858964e-11
  4.3851446e-06   1.3399329e-06
  1.2983890e+00   1.4046115e-08
 -3.3729524e-05   5.6635336e-09
  1.9281366e-05   5.3299523e-08
 -1.6412593e+00   4.1688391e-09