270
Lattice="-6.05105179 6.77376307 19.09867947 16.54301507 -9.08603606 9.21785377 2.56950995 13.46408279 -16.0703544" Properties=species:S:1:pos:R:3:forces:R:3 energy=-526.3371545947157 pbc="T T T"
Ba       0.26379244       3.09522814       2.78068719       0.30852010      -0.03485213      -0.72882834
Ba       4.20807949       0.52900422       1.23502860      -0.43518133       0.29428865      -0.43136336
Zr      12.86664681      11.04169298      12.30031826       0.81586703      -0.06644762       0.18306260
Zr       1.84668402      -0.29059394       4.69413432       0.94554177       0.37655931      -0.71197285
S        0.10652138       1.23975096       5.28362138       0.34109987       0.41007546       0.48827498
S        0.97191330       2.14203417      -0.34082053      -0.48191275      -0.22963847       0.74955515
S        3.81427274       1.40925078       4.18570138      -1.12945151      -1.85696289       0.50390364
S        4.14800241       2.44631723      -1.45405854       0.46997036      -0.35150130      -0.27553267
S        2.89186894      -0.39223713       7.01311325      -0.73600153      -0.05506766      -0.18152534
S        1.10812583      -0.03531058       2.23330748       0.36018532      -0.20753533       0.55641468
Ba       1.17901927       7.93347942      -2.56987280      -0.13762852      -0.26373530       0.13817936
Ba       4.87088392       4.98599093      -4.15122234      -0.22044262       0.14418366       0.01200674
Zr      11.13799245       1.97683247      22.96583410       0.15754804       0.63028332       0.60275480
Zr       2.46674961       4.10091822      -0.76254152       0.54269494      -0.40535812       0.36284093
S        1.11627964       5.94704394      -0.17448399      -2.02576300       1.44196033       1.74702462
S        1.59583678       6.81027338      -5.34154894       0.46258109       0.01711972      -0.53044713
S        4.27097737       5.98490116      -1.11330521      -0.23245806      -1.02250952       0.11590766
S        5.00491729       6.93154401      -6.93286063      -0.20830569      -0.41777331      -0.08037857
S        3.31956853       3.78884236       1.67519020       0.32219962       0.14976688      -0.14447441
S        1.44495634       4.22411673      -2.87722202       0.15343025       0.04380710      -1.33953360
Ba       2.11850156      12.19715801      -7.91707972      -0.07553300       0.48469547       0.31573470
Ba       6.21904722       9.51917465      -9.48324004      -1.12470209      -0.00112375      -0.08839065
Zr       1.75144740       9.11310863     -10.55849222      -0.23919794      -0.88682780       0.99297410
Zr       3.48905097       8.53493433      -5.81510777      -0.23237871      -0.85207264      -0.23900862
S        1.83436138      10.39855829      -5.24685327       0.83239995      -0.12698138       0.17108498
S        2.69619947      11.42389003     -11.00124837      -0.45662270      -1.06270087       0.39057920
S        5.13181694      10.35525866      -6.42970060      -0.20673537       0.21840452      -0.19879365
S        6.00569328      11.30873899     -11.96140479       0.44936577       0.05244197      -0.61354950
S        4.45002983       8.32391213      -3.58222092      -0.65489343       0.39943636      -0.74467008
S        2.47105512       9.06789209      -8.17959388      -0.41118862      -0.31977170      -0.98248230
Ba       5.94663452       0.27695943       6.17987491      -0.48219035      -0.79599843      -0.78464289
Ba       9.73899923      -2.43241016       4.56114637      -0.49755566       0.45988278      -0.28406455
Zr       5.63148356      -2.91892875       2.93667932      -0.58915080       0.85582448       0.68103395
Zr       7.40984914      -3.35697843       7.72915832      -1.58097856      -0.32138102      -0.26057945
S        5.57595963      -1.81967281       8.84121293       1.24111779      -0.28698565      -0.92996505
S        6.49819330      -0.45180130       3.09235056      -0.90101777      -1.70289097       0.09580732
S        8.82942080      -1.44478778       7.57784246       0.78206502       0.71598057      -0.35732021
S        9.77970347      -0.76659770       1.76046817      -0.33644417      -0.18461181      -0.03753314
S        8.34889790      -3.56503454      10.04327685      -0.08175026      -0.44564642      -0.20070206
S        6.44039330      -2.98540750       5.51359903      -0.00269249       0.17788606      -0.86335386
Ba       6.67594961       4.81744990       0.85475335      -0.14987184      -0.72990909      -0.44943983
Ba      10.52648879       2.19239570      -1.09400190      -0.26409146      -0.71611509       0.44687246
Zr       6.23180758       1.50531042      -2.17539666       0.63222082      -0.64045785      -0.47399800
Zr       8.29297815       1.00824807       2.46900471      -0.15192693       1.45311899       0.16155117
S        6.64920541       2.94264560       3.31084060       0.10404146      -0.38458921      -0.27673098
S        7.32076804       3.74144062      -2.23780125      -0.56053124       0.15865817      -0.18855191
S        9.91323572       2.84702542       2.05750080       0.47485983       0.57295591      -0.40108655
S       10.44081269       3.63170710      -3.74099612      -0.23651670       0.61696971      -0.00939404
S        9.23786962       0.95328042       4.83099528      -0.03119064      -0.14137525       0.56675843
S        7.33911388       1.42958214       0.17376304      -0.41924532      -0.28384623      -0.35817692
Ba       7.66762627       9.41391377      -4.83108594      -0.83965864      -0.64935233      -0.62921861
Ba      11.18160130       6.55390455      -6.54391486      -0.02597775      -0.05704949       0.13825001
Zr       1.17063859      12.53399351      11.52380220      -0.62035882       1.75092421       0.32464819
Zr       8.95469399       5.39272866      -2.81330298      -0.09229174       1.46908045      -1.67753527
S        7.30851518       7.50709570      -2.27019624       2.20982067      -0.91950867      -0.64150847
S        8.19991553       8.38385041      -7.76593696       0.84089421      -1.25004121       0.61516535
S       10.82439059       7.24417950      -3.33133387      -1.02711908       0.71288476      -0.84019975
S       11.52183145       8.50932475      -9.36235449       0.29976891      -0.43002945       0.55543616
S        9.59810749       5.43636893      -0.49172401       0.79372098      -0.09313644       0.49788047
S        7.75694009       5.78109908      -5.13400578       0.66157899       0.01223371       0.02898376
Ba      11.42165207      -2.79539281       8.92452894       0.03628458       0.03142298      -0.32260220
Ba      15.06313777      -5.98706743       7.54154737      -0.08405095       0.12094332      -1.60678706
Zr       7.52808047      13.91678836       9.08631273       0.52513554       0.06560271       0.33431240
Zr      15.25924256       6.93019029      -5.20634936       0.30951244      -0.11906053      -0.91624613
S       11.37135096      -4.59862916      11.38440944      -1.27534563       0.82588117       1.16048489
S       11.89957152      -3.81844054       6.05565568      -0.54193034      -1.45406095       0.40486742
S       14.28604738      -4.76813923       9.98809159       0.87851529       1.74015038       0.97802306
S       15.01587723      -4.04976946       4.86421863       0.33119915       0.31287168       0.22217709
S       14.00556877      -6.50969221      12.96017783      -1.17310147       0.00983961      -0.63449051
S       14.44798671       6.77246039      -7.68228350      -0.22263399       0.56110616       0.11298134
Ba      12.20507363       1.50493913       3.81158912       0.32771512      -0.12769006      -0.20635967
Ba      15.80161980      -0.99991314       1.96156591       0.36108894       0.07944578       0.15878762
Zr       5.78687319       5.16550754      19.77016278       0.67453069       1.49945518       0.58738462
Zr      13.53731425      -2.17250178       5.64448088       1.75930959       0.51303614      -1.96120505
S       12.07793416      -0.45154443       6.57455801      -1.77390374       1.53095402       0.43737204
S       12.77396336       0.89295714       0.69983824      -0.40746267      -0.65135975       0.18324390
S       15.18933727      -0.20677666       4.89435490       0.23069495       0.60514716      -0.06259352
S       15.89096842       0.87728480      -0.82439085       1.47935615      -0.60959415       0.20915936
S       14.62978483      -1.84920243       7.71485737       0.92515134      -0.56595580       1.99960468
S       12.71674024      -1.71003769       3.19188668      -0.19097238      -0.37848624      -0.24046189
Ba      12.92302537       6.21587430      -1.69924460       0.58990588      -0.28240354       0.40515178
Ba      16.61096943       3.13088558      -3.23448374      -0.05910810       0.41477090      -0.30436094
Zr       6.65409212       9.70897832      14.47752855      -0.51137023      -1.25132865       0.80004190
Zr      14.49419786       2.61651543       0.12336258      -0.20970104      -1.03843893       0.27796478
S       12.83769593       4.30761204       0.77854158       0.12933159       0.76335001       0.10109531
S       13.54109967       5.27710029      -4.61837900      -0.03541528       0.07397614      -0.05306901
S       16.17416690       4.40708978      -0.35641428      -0.24538072      -0.87918424      -0.36463210
S       16.81017012       5.08276687      -5.89863830      -0.02664978      -0.05290085      -0.03408503
S       15.40091888       2.37976091       2.35090815       0.43161118       0.06013054       0.71264003
S       13.53702952       2.78760629      -2.13166180      -0.57102837       0.34192839      -1.56635771
Ba      -1.30995514       5.22718023       8.94585220      -0.48196613       0.15836740      -0.26575777
Ba       2.34917680       2.95346507       7.52761397      -0.62088321      -0.35887667      -0.15843212
Zr      17.02183759       6.55632380      -0.82519249       0.78596838       1.00935388       2.31587303
Zr       2.04549221      15.29597942      -4.86295904       0.57143995      -0.44580187      -1.23183994
S       -1.70263862       3.92570692      11.55473356      -0.97344955      -0.64671177       0.40775039
S       -0.97261975       4.48276638       6.08582163       0.15859849       0.19036935      -0.46893664
S        1.49962458       3.47746918      10.49976251      -0.33944497       0.47545626      -0.03768645
S        2.09107575       4.44156922       4.72374097       0.05361790       0.47505415       0.62545457
S        0.26373168       2.06572264      13.62922447       0.16461837      -0.88428199      -0.60498641
S        1.33380279      15.47873050      -7.54235400       0.47970296      -0.09736137       1.20639491
Ba      -0.84114524      10.01186043       3.75723342       0.03911929      -0.39423085       0.68211977
Ba       2.92080601       7.24089378       2.03307448       0.06845938       0.01188534      -0.04594257
Zr      -1.11507282       6.74176912       1.04464394       0.78823619      -0.43340130      -1.26588216
Zr       0.72878366       6.34774019       5.67507553      -0.26494116      -0.95616043       0.07379503
S       -0.96616459       7.90986641       6.65868473      -0.31942020       0.01408499      -0.19789185
S       -0.18886523       9.12206405       0.77248837      -0.39051780      -0.66538637       0.20649318
S        2.39230582       7.97074533       5.03792937       0.42829567       0.54753402       0.06624118
S        3.17406256       9.32889750      -0.35881427      -0.45071094       0.08604917       0.06775655
S        1.71124370       6.20203220       7.88141397       0.24870461      -0.23221321       1.17918826
S       -0.18482231       6.77783516       3.35099742      -0.88440053      -0.37268946      -1.17838689
Ba       0.14094122      14.48668263      -1.49196145      -0.52535315       0.04588206       0.37764247
Ba       3.71214168      11.85923138      -3.01679777       0.13859961      -0.14893407      -0.36715916
Zr      16.26748477       2.11263065       4.67749112      -1.65875406      -1.42870578      -0.12511105
Zr       1.30291726      10.96392463       0.15038430       0.49802693      -1.11944846       0.38098915
S       -0.25391353      12.70514689       0.98118377      -0.67500482      -0.13143465      -0.00048560
S        0.25987744      13.51729124      -4.43921226       1.66532145       2.60184129      -0.41546251
S        2.99383341      12.76007429      -0.09470205      -0.91061495      -1.05104075       0.01093015
S        3.98204495      13.65049396      -5.54927044      -0.83652907       0.14395976       0.05064486
S        2.09621989      10.66513024       2.74353952       0.11553783      -0.12788494      -0.14255996
S        0.40831375      11.08636160      -2.10501005       0.44509567       0.01561806       0.69749414
Ba       3.62549162       2.19835513      12.30388697       0.33281347       0.11359709       0.25795264
Ba       7.55267000       0.01886768      10.60663372      -0.98642461      -0.97735126      -0.00039172
Zr       6.03317346      12.63202255      -6.69692714      -0.12030294       0.21620815       1.21628895
Zr       7.92055542      12.12365368      -1.84735995      -1.62367030       1.71523569      -1.23738117
S        3.37955499       0.35158126      14.80604162       0.04587308       0.73616208       0.03889178
S        4.50365153       1.49257457       9.30868597       0.39854816       1.28147038      -0.46657372
S        6.83346296       0.73109609      13.65947880      -0.01115589      -0.46312837       0.32945651
S        7.65106719       1.69740248       7.95453083       1.23077311      -0.21545043      -0.14750985
S        6.27400819      -1.18687311      16.39701307      -0.04819805      -0.27899962       0.58415709
S        4.57833962      -0.67387107      11.69684285      -0.32299547      -0.75595020       0.78679894
Ba       5.02741979       6.82609751       6.52193444      -0.91299256       0.55614645       1.36095398
Ba       8.54816107       4.50329879       5.07167805       0.17627585      -0.74062193       0.82719059
Zr       4.31661169       3.67517085       3.94622243       0.69119457       0.60113330      -0.44274411
Zr       6.10883551       3.34030406       8.66226757      -0.83796412       0.74102997       0.91708816
S        4.52917786       5.32466499       9.48756771       0.61642912      -1.06182216      -0.74086189
S        5.37430064       5.97596229       3.75031121      -0.01211752      -0.10456340      -0.62047922
S        8.02418906       4.97670593       8.35719437      -0.28161734       0.40439924      -0.07950353
S        8.85463518       6.16208883       2.65677634      -1.49431761       0.60326861       0.27257003
S        7.25220631       2.89020811      11.13297436      -0.63627508       1.36311387      -0.00203912
S        5.18205447       3.76069561       6.40417846       0.16079546      -0.32570117       0.24414606
Ba       5.27778588      11.20443356       1.54744367       0.08371127       0.34470183       0.29061702
Ba       9.41045103       8.64254245      -0.08711166      -0.52944320       0.36529814      -0.31816687
Zr       5.36051091       8.14236615      -1.21451967      -1.27861259       0.73537907      -0.35577775
Zr       7.01114570       7.83117158       3.43093435       1.33031597      -0.12282697      -0.40777397
S        5.25293995       9.29834264       4.12957541       0.08061015       0.78990198       0.16716871
S        5.95455461      10.67414657      -1.38658457       0.69920688      -0.55133985      -0.09525762
S        8.75626743       9.48663789       2.92227241       0.05915867       0.97712653      -0.08365479
S        9.40548151      10.63244697      -2.87434248       1.16492692      -0.78379962       0.33222974
S        7.91274137       7.58436690       5.82338327      -0.23427169      -0.03519562      -0.75489683
S        6.24194009       7.86130159       0.98707198       0.33019822       0.56316836       1.25840333
Ba       9.28459379      -0.34241033      15.39729090       0.28010532      -0.25203716      -0.23368844
Ba      13.06473208      -3.35109948      13.92751347       0.10964665      -0.42488280      -0.12268106
Zr       9.09907742      -3.61115701      12.25530496       0.06156778      -1.55441220       1.48075379
Zr      10.66883921      -3.92904153      17.10679139      -1.44073712      -2.19518890       0.12170397
S        9.13493789      -2.21538186      17.88601461      -0.39922573       0.08071999      -0.12490846
S        9.65957841      -1.28542923      12.43346257       0.78900054       0.29244061      -0.36300633
S       12.36872754      -2.42059460      17.27242965       2.40238665       1.80785173      -0.37618422
S       13.33030645      -1.20661017      10.88072905      -0.37654702      -0.53080323       0.11180339
S       13.86582564       9.04513032       3.53000628       1.28959982       0.23211270       0.50288478
S        9.77313171      -3.80464783      14.76145313       0.52147187      -0.06314077       0.21546867
Ba      10.10908232       3.76952169      10.44871560       0.37401003       0.63871169      -0.27026610
Ba      13.93266158       1.25710016       8.51808410      -0.06855226       0.12939720      -0.89120039
Zr       9.96439094       0.85966161       7.27935491       0.11081102      -0.06168580      -1.41214987
Zr      11.61420376       0.23284694      11.83353764      -0.96653303       0.68758339       1.15094982
S       10.29793601       2.01521062      13.10611332      -0.37442145      -0.24684182      -0.50357326
S       10.92890130       3.11066313       7.34562322      -0.55312388      -0.61700476      -0.39032644
S       13.30997720       2.07603595      11.41939597      -0.36759975      -0.43091314       0.29527945
S       14.13662189       3.21962240       5.60456116      -0.42052325      -0.78128869       0.67338618
S       12.50055258      -0.44619071      14.24457523       0.01580863       0.59529189       0.02388236
S       10.32718577       0.78827739       9.67844468       1.36790709      -0.61616666       1.39804525
Ba      11.33168769       8.29570426       4.67610002      -1.47179085       0.23936441       0.44161234
Ba      14.49673387       6.15155409       2.94182558       0.65526886      -0.74013730      -0.18676538
Zr      10.85507279       5.21331090       1.69712042      -0.75418039      -0.05449716       0.97444680
Zr      12.53749396       4.82051403       6.44924278       0.00441827      -0.27886566       0.28925815
S       10.93379940       6.61250043       7.18405462      -0.26773507       0.34605877       0.60968320
S       11.55258393       7.68976070       1.76966345       0.75329217      -0.90284224      -0.92394234
S       14.21134596       6.55652240       6.12888239       0.64749401       0.43305025      -0.15817504
S       14.97121265       7.67533073       0.15051253      -0.53994330       0.45401346      -0.03873213
S       12.98384627       4.69174014       9.07909561       0.67519880       0.24814422      -0.03396581
S       11.59073118       4.94314560       4.20880001       0.00167659       0.20866223      -0.78119623
Ba      -3.74626891       7.49582263      15.63072377       0.28409748       0.60207108      -0.44450591
Ba      -0.07159667       5.11427165      13.92856657       0.76803091       0.30476326       0.32620551
Zr      -3.95141805       4.52702047      12.77873883      -0.55046320      -0.96898848      -0.60238031
Zr       0.19337831      17.57489886       1.46122966      -0.44421194       0.70623163      -0.63868879
S       -4.17101963       5.87060287      17.99734331       0.77262944      -1.10752346       0.39969078
S       -3.13141959       6.71732177      12.51134989       0.20875074       1.53983935      -0.17658720
S       -0.77564520       5.98304273      17.08929698       0.22244607       0.83534141      -0.16898306
S        0.14848721       6.68438085      11.25473524      -0.17142444       0.76048559      -0.03605274
S       -1.35006557       4.15372914      19.78993224       0.35633823       0.09082633       1.92362900
S       -2.72343445       4.24697707      14.91846268      -0.74452228      -0.31580795       0.63555108
Ba      -2.81956530      12.18984862       9.85541873       0.00904008       0.07019383       0.62267107
Ba       0.86401720       9.41009189       8.64650241       0.22499245      -0.05741699       0.44338471
Zr      -3.10439012       8.87339378       7.40948239      -0.44810460       0.68372476      -0.65048202
Zr      -1.53943011       8.56914401      12.00439914       0.35441624       0.16638510       1.83246111
S       -3.16311572      10.33948184      12.90149444       0.92977773      -0.45311897      -0.41271644
S       -2.09962569      11.10423352       6.87156482       0.54687284       0.22109625       0.35260769
S        0.30592762      10.30604571      11.64702083      -1.01652598      -0.34678434      -0.28702660
S        1.25154285      11.15935650       6.29787942      -1.08240344       0.94802727      -0.88638783
S       -0.44082808       8.21665153      14.36546824      -0.44931614       0.55760392       0.32236318
S       -2.18743667       8.94788755       9.79343645      -0.57430511       0.11548213      -1.44660420
Ba      -2.24571185      16.78688107       5.44152804       1.29052284      -0.54200122      -0.37200475
Ba       1.36657468      13.63431833       3.27528638       1.29064619       1.11278656      -0.02173866
Zr      14.05569461       4.36544563      11.19069981       0.43172732       1.16967796       0.00569758
Zr      -0.32141604      13.11079271       6.66688820      -0.63472890      -0.23161536       0.74254996
S       -2.24226554      14.63068599       7.58587562      -0.02484271       0.02406428       0.33477025
S       -1.34709775      15.88188095       2.03132990      -0.87917158      -1.14989058       0.18137756
S        1.35189479      14.98499900       6.49087158      -0.65506642      -0.44838800      -0.85155602
S        2.03699888      16.09041968       1.15093383       1.12402716      -1.62073629      -0.87226447
S        0.39394332      12.94247609       9.05291186      -0.20017139      -0.27032984       0.11764405
S       -1.41825022      13.35431904       4.32593074       0.38938601      -0.32269293       0.94597382
Ba       1.67367151       5.04846630      18.63726138       0.29747887      -0.50789130      -0.35129094
Ba       5.15537253       2.18026125      16.87916333       0.47137084      -0.49150673      -0.00815194
Zr       3.97073679      14.87390616      -0.11858066       0.75669267       1.67020667      -0.31980789
Zr       3.22885619       1.27992954      20.52930583       0.08185817      -2.22252559      -0.75349661
S        1.85049734       2.97247654      21.36369280      -1.08976104       0.96928382       0.30651710
S        2.41181907       3.73108175      15.53795651       0.07706743       0.09727265       0.23776837
S        4.96026545       2.87758220      19.96942980      -0.02096097      -0.34810188      -0.22170404
S        5.71381772       3.95355519      14.49080700       0.63852972      -0.72031506      -0.66387167
S        6.64831055      14.12856471       6.73325203       0.32399151       0.26962036      -0.19817021
S        5.10397789      14.53026384       2.00794235      -0.10655316       0.32565880       0.54820267
Ba       2.37487487       9.01026820      13.27174329       0.74900942      -0.03653742       1.19962132
Ba       6.47061322       6.29661954      11.49394818       0.24481283       0.39688946       0.64195564
Zr       2.29359483       5.78799906      10.44922722       0.56109396       0.29201113       0.14551716
Zr       4.01517263       5.57781510      15.13288028      -0.65787609       1.05108517      -0.27649934
S        2.33716024       7.17936166      16.10083147       0.24714490       0.21720529      -0.26008166
S        3.12357888       8.32820936      10.55310556      -0.25914703      -0.51350768      -1.20271182
S        5.75065897       7.28048062      14.60806805       0.43347439       0.84063365       0.12733622
S        6.65710710       8.36756390       8.90986158      -0.67737464       0.10606588       0.64527984
S        4.97683769       5.55968913      17.46896933      -0.08445735      -0.35820872       0.57436316
S        3.53807312       5.99069186      12.64179745      -0.89608047      -0.71399639       0.33630956
Ba       3.67291103      13.62515960       7.89665724      -0.18509774      -0.68845866       0.11583286
Ba       7.48727496      11.03006626       6.27861950      -1.31491877       0.19806610      -0.77767527
Zr       3.17893573      10.36803208       5.01496054       0.45822187       0.56969918       0.08246615
Zr       4.79632261       9.82367282       9.79715328       0.15676867       0.23937800      -0.43473555
S        3.19986346      11.64317601      10.74470441       1.03354788      -0.00598516      -0.52340268
S        4.06882806      12.66393065       4.72288019       0.14703202       0.68919550       0.16198588
S        6.21264423      11.85376276       9.32505146       1.23301135       0.86366284       0.07140915
S        7.28510234      12.69151129       3.62918948       0.03264648       0.06820101       0.07860257
S        5.73568645       9.83313178      12.22083501      -0.17334334       0.21890719      -0.49180482
S        4.17943705      10.36067554       7.43929217      -0.31220577      -0.66621902      -0.31179897
Ba       7.19448407       1.64889129      21.75840597       0.14501826       0.01066925       0.06900904
Ba      10.98454338      -0.95683136      20.00606946       0.13095317       0.02711525       0.34216374
Zr       6.86734719      -1.37829452      18.79385847       0.29824025      -1.11785448       0.93387378
Zr      11.24885294      11.31832227       7.48425170       1.69075309       1.68463350      -0.36505963
S        7.25828466      -0.17251848      24.19399798      -1.13344088      -0.05618898       0.54161334
S        7.64523540       0.92592572      18.82422453       0.13583457       0.33574488      -0.49370062
S       10.53670367      -0.42259132      23.21186138       0.02611144       0.24670838      -0.13262719
S       11.38643558       1.17766300      17.49445969       0.33949508      -1.43640187      -0.20965076
S       11.99508025      10.92114456       9.95970460      -0.70752391       0.67395219       0.03913394
S        8.02706454      -1.68088836      21.10765138      -0.14437263      -0.19447991       0.07604596
Ba       8.06364741       6.11016814      16.32051399      -0.25937882       0.16010500      -0.02149713
Ba      12.06603340       3.51127291      15.06856571      -0.20210392       0.29311363      -0.43043657
Zr       7.78968299       2.96498042      13.59573965      -0.00370092      -0.97777176      -0.45241951
Zr       9.41621490       2.56696246      18.17643964       0.44271740       0.37776937       1.17812913
S        7.98195135       4.55039802      18.89658358       0.35384704      -0.83106846       0.13500573
S        8.86587760       5.16167200      13.49365678      -0.38291395      -0.05480370      -0.23358599
S       11.15248847       4.27959873      17.78610649       0.59331124       1.57891599       0.90604358
S       12.12142663       5.37050301      12.43330058       0.69004722      -0.90937804      -0.57692411
S       10.26487396       2.20799077      20.73693419      -0.45180290       0.22084563      -1.02894954
S        8.69353293       2.64585491      15.92616672      -0.56618427       0.38983652      -0.21006546
Ba       8.53780918      10.47997728      11.21887855       0.81111119      -0.08488617      -0.96053107
Ba      12.81924444       8.03295253       9.72835174      -0.28852375      -0.54520376      -0.32335655
Zr       8.77361442       7.33706718       8.15072282       0.64419387      -0.30928590       0.47912010
Zr      10.47072777       6.93986320      13.09379338      -0.46185667       0.64928684      -0.30205499
S        8.70041838       8.63628473      13.58588823       0.00477847       0.42604472       0.81174776
S        9.55174480       9.82307059       7.72277551      -0.69918793      -2.34228214       1.30156750
S       12.23182121       8.65382038      13.06368478      -0.53515317       1.49671714      -1.39477541
S       13.03535041       9.62175790       6.92171170      -0.04380400       0.13366637       0.35022915
S       11.16275590       6.75992812      15.55479483      -0.02985022      -0.03286321      -1.13411048
S        9.46969161       7.24952063      10.68419233       0.69856693       0.12488541      -0.44181903
320
Lattice="20.06176575 0.19513462 1.51807604 -0.20641995 20.07309984 -0.46015115 -1.52093043 0.23491625 20.0513478" Properties=species:S:1:pos:R:3:forces:R:3 energy=-641.1413800679147 pbc="T T T"
Ba       2.17985983       2.98113507       2.43706940       0.38860342       0.00863621       0.14901133
Zr      19.98220260       0.27340258       1.57366465       0.71377778      -0.62761696      -0.57963571
S       19.35292112      20.15311297       3.55933056       0.15545614      -0.52350318       0.27220041
S       19.83730520       2.82873796       1.75325091      -0.10271863      -0.56034194       0.14450071
S        2.41381413       0.27186152       0.46933811       0.03483859       0.29891447       0.03681801
Ba       2.07834985       2.78113024       7.43898160      -0.17543877       0.17340628      -0.37092521
Zr      -0.34507214       0.07620004       5.06988497       0.63680624       0.25084564      -0.17751744
S       -0.22577893       0.37227827       7.64829909       0.04494590       0.49644214      -0.83630831
S       -0.07976872       2.55111723       4.68835241       0.13549397       0.45293589       0.08568152
S        2.01508754      19.77152354       4.50800204      -0.85155026      -0.04234169      -0.27964019
Ba       1.62382616       2.91416406      12.46778964      -0.03700204       0.47963672       0.76663780