80
Lattice="-7.99689754 1.37328771 12.37182739 8.97603502 -9.00244104 6.72071142 5.52866303 11.69465709 -6.40782078" Properties=species:S:1:pos:R:3:forces:R:3 energy=-149.16792773269117 pbc="T T T"
Ba      -0.81105766       2.05366516       3.84642078      -0.24208962       0.43225722       0.04735368
Ba       3.36137792       0.14856468       2.74705186       0.24710533      -0.61662657       0.29796514
Zr       6.55758662       4.04173212      12.48931092       0.43613339      -0.13761183       0.88684381
Zr       5.56829343       9.89444532      -1.54704758      -0.29288544      -0.18915072       0.31420855
S       -1.95854078      -0.56700284       5.68212711       0.53978260      -0.08776519      -0.22952872
S        1.71903495       1.85002655       0.65697582       0.32184859       1.00559834       0.36810555
S        1.62603726       0.13860007       5.69866846       0.16690389      -0.41987321      -0.23644736
S        5.08458447       2.17270161       0.90069412      -1.04074045       1.25363427       0.38157050
S        5.98108305       8.63361147       0.56330836       0.20700538       0.16771342      -0.08471727
S        0.37270572      -0.38224830       2.48730486      -0.50158235      -1.15351110       0.33166579
Ba       1.68940216       7.79829063       0.80051137       0.60737503       0.55093847       0.26270237
Ba       6.78684253       5.60811065      -0.38738607      -0.01420430       0.12215766      -0.31592687
Zr      11.70985209      -3.05852685       3.49291849      -0.60278332       0.56625314       0.12490093
Zr       3.31236007       3.80401785       1.57394658      -1.01194571      -0.43111365      -0.60958921
S        0.88342481       5.55387448       2.74579501       0.14202121      -0.85280358       0.09622960
S        4.43525102       8.12672113      -2.76195273      -0.35580144      -0.28282730      -0.28458028
S        4.74921111       5.59785891       2.23535767      -0.00309693       0.43323403       0.04966713
S        8.08011788       8.48549809      -2.79432708      -0.08314764       0.83144209       0.50799482
S        3.14635468       3.10940266       4.18015823       0.10052573      -0.42842824      -1.17465420
S        2.74232221       4.72427718      -0.82107412       0.44742430       0.46599282       0.44655471
Ba       4.09225645      -2.35078269       7.32929784      -0.04540195       0.08127244      -0.22370594
Ba       8.62508728      -4.85658742       5.70719408      -0.49735761      -0.01982093      -0.27313397
Zr       2.01259814       8.54915120       9.24099316       1.86145662       0.23147777      -0.96047583
Zr       4.76501447      -6.36771154       8.02665029      -0.34792751      -0.29366517       0.59140943
S        2.61569675      -4.95103295       8.84001668       0.19155846      -0.36257847      -0.53904887
S        6.55205051      -2.79123364       4.11593735      -0.42609291       0.54522088      -0.38149891
S        5.94929720      -4.36890496       9.19257740       0.92162353      -0.52141264      -0.17496851
S        9.95964332      -1.53727243       4.57158472      -0.01823424      -0.03898146      -0.75654911
S       10.35281294       3.82340551       3.72239107       0.01317166       0.40833358       1.21726165
S        4.75510800      -5.51030869       5.76047343      -0.32839297       1.33045889      -1.08312411
Ba       7.02073813       3.41354646       3.91067101      -0.24797670       0.58576321       0.22888477
Ba      11.19268301       1.05397066       2.21079899      -0.23081798      -0.10179344       0.25416653
Zr      -0.82843430       2.46831451      12.60845706       0.97443401       0.40931287      -1.07204206
Zr       7.59339627      -0.59402936       4.98230718      -1.12594690      -0.58398876      -0.05287392
S        5.49073267       0.61899113       5.75600097      -0.07986825      -0.40513777      -0.17276081
S        8.80061124       3.52457384       0.81511960      -0.47710189      -0.17377240      -0.21601250
S        8.86086109       1.45389846       5.86872922       0.07636673       0.19973673       0.55272474
S        7.15526203      -7.44075041       7.19887695      -0.77280346      -0.05423002       0.99351216
S        7.71905481      -2.17891628       7.17878038      -0.46932616       1.09792444       0.53498654
S        7.56138457       0.84092581       2.68311557       0.39534512      -1.69812659      -0.14023914
Ba      -4.60841293       3.28061825      10.17333827       0.13958133      -0.28325021      -0.14470551
Ba      -0.21135835       0.76863429       8.71587019      -0.35814173      -0.36991669       0.32671083
Zr      10.37861219       3.41085965       6.44874912       0.28708720      -0.28877892       0.30863220
Zr      -3.81830968      -1.07969703      10.74048161       0.45735009      -0.60644643       0.26461112
S       -5.65624627       0.25317968      11.45375339      -0.56916389       0.13017826       1.08622027
S       -2.83292675       2.82951118       6.50975191       0.58070579       0.34584008       0.10948329
S       -1.81125176       0.45761572      11.65535533      -0.08763680      -0.14288593       0.18684565
S        0.88844075       3.15292115       7.11975897      -1.57695177       1.72422392       0.03675997
S       -2.69597265      -2.63274518      13.18713172      -1.57178133       0.00530731       0.24117664
S        1.56041276      11.48564485       2.15925462       0.65447343       0.52257201      -0.70470862
Ba      -1.53195760       8.94734995       7.08209285      -0.34113240       0.04903159      -0.18801545
Ba       2.72092558       5.86703789       5.35627187       0.03969243       0.96700870       0.55811408
Zr       7.63234845      -2.37868787       9.82591599       0.53272361      -0.13966494      -0.74257757
Zr      -1.17948435       4.94668014       7.71514718      -0.27169231      -0.84546130       1.51837851
S       -3.19784949       6.28053265       8.61266844       1.44225673      -0.98059547      -0.39965779
S       -0.08171945       8.85870587       3.49395521      -0.39891496      -0.75401179       0.27451952
S        0.47136605       6.56275910       8.66968630       0.18219480      -0.19188057      -0.17390910
S        3.67377035       9.11553309       3.39734735       0.32589665      -0.75479255       0.11450466
S       -1.33523569       3.59146273      10.05155289      -0.02109495       0.20600339      -0.39961244
S       -1.25769322       6.03092098       5.56261269       0.03363142      -0.09558860      -0.02070785
Ba       0.25449839      -1.45152660      13.47580068      -0.73696754      -0.13568879       0.37835987
Ba       4.01636659      -4.54362121      11.46194624      -0.06006518       0.58988636       0.88480672
Zr       5.77040655       7.95475064       3.38872004       0.68659774       0.28997377      -2.31438777
Zr       0.93379501      -5.62373513      14.24765913      -1.37196045      -0.55426264       0.28943467
S       -1.01576065      -4.59214211      15.09581688      -1.49811051       1.15569333       0.56209951
S        1.71956675      -1.79072112      10.46753509      -0.66403572      -0.00037924      -0.02562516
S        2.12133491      -3.49193251      15.00000743       0.48944715      -0.27283777       0.51413373
S        5.14676640      -1.35889485      10.19334355       0.83469805       0.16087415       0.00103362
S        0.91612516      -6.51465831      16.82582114       0.52221852      -0.28136226      -0.61671196
S        6.19017423       6.59230279       5.27411524      -0.01925533      -0.09174227       1.00760186
Ba       3.30462097       4.92351588      10.51985533      -0.45385676      -0.91237318      -0.72444947
Ba       6.57714793       1.30218732       8.72551381      -0.19534547       0.81899097      -0.31960954
Zr       2.80968386       2.12533048       6.43122119       2.46567162      -0.60420523       0.43958934
Zr       3.27354896       0.06486418      11.05774272       0.41873574       0.52385331       0.34072828
S        1.48851514       1.98408738      11.78918797       0.64220435      -0.98659410      -0.18608198
S        4.69326794       4.15988782       7.38857246      -0.30841695      -0.94460976      -0.40878521
S        5.17389990       1.80962401      12.09989169       0.42971366       0.71578277      -0.09552161
S        2.91275836      -6.95135522      14.07512199       0.99294262      -0.64068315      -1.01055884
S        3.36080471      -0.93353049      13.50974684       0.06541354       0.94312025      -0.57750472
S        3.27991995       1.13683921       8.78951313      -0.15326828      -0.13583162       0.10255546
135
Lattice="13.92179037 -3.04281406 0.58091513 2.90632866 13.84059516 2.91820312 -1.38833968 -2.84638468 14.23956944" Properties=species:S:1:pos:R:3:forces:R:3 energy=-246.99364660750143 pbc="T T T"
Ba       2.69648487       1.15763474       2.91350054       0.27331788       0.06966961       0.50027581
Zr      12.46109396      -5.61425018      14.83087715      -0.51402555      -0.73189775      -0.25584817
S       13.72343799      -2.77314365       3.04115283      -0.43750918      -0.50991054       0.13991498
S       11.95926461      -3.31775107      15.07963030       0.31935587       0.98072559       0.19222231
S        2.31381984      -0.16623535       0.23062122       0.11906945       0.45905975      -0.23327421
Ba       2.30966939       0.50523165       7.68759305      -0.06860500      -0.31565260      -0.47175228
Zr      16.12844838       9.87833526       8.09804526       0.86266988       2.60920300       0.34244107
S       16.01237851       8.83597323      10.20550634      -1.48342818       0.69117786       2.60233781
S       13.78106925      -1.70863091       6.53146468      -0.03603424      -2.18165127      -0.51885691
S        1.77741141      -1.14546569       4.73725744       0.76153518       0.31407772       0.31759526
Ba       1.74897645      -0.24327232      12.41363909       0.08324659      -0.97726878      -0.38379211
Zr       2.04366615      11.95539729      12.20943411       0.99491845       0.08442116       0.08089519
S       -1.04977042      -2.20067050      11.84540100       0.46395051       0.26199387      -0.60254778
S       -0.28859505       0.58220552       9.08410275       0.26647483      -0.49062058       1.42759742
S        1.54955516      -1.93619524       9.34568354      -0.32238768      -0.05778962       0.43675365
Ba       3.64193661       5.43692958       3.69665503      -0.85085669       0.33305970       1.11239724
Zr      14.82546126       1.39219420       1.67235701       0.13200618       0.63965917      -1.49876565
S        0.64851514       3.45538289       3.16962865       0.05324752      -0.46323059       0.04240925
S        1.54432481       6.85107753       1.54762656       0.13981596      -1.03132787       0.04358671
S        3.26268793       3.80741457       1.04461496       0.74862464      -0.45300146       0.43100048
Ba       2.91075060       4.96208984       8.10615485       0.70791989       0.40065957       0.49282789
Zr       0.64461631       3.42983746       5.55510035      -1.12594079       1.80484720       0.79193048
S       14.09003972       0.60352639       8.57221896       0.28803292      -0.19213075       0.86027795
S        1.14055195       5.90415565       5.70214908      -0.51531966       0.43928844      -0.08895293
S        3.07305032       2.99980899       5.46417335      -0.27395836      -0.22681409       0.00028894
Ba       2.43877509       3.98308238      13.57399853       0.09128632      -0.65154843      -0.16714767
Zr      13.91060202      -0.26184300      10.95428807       0.96039966      -0.99376659      -0.88645176
S       -0.07548228       2.02983794      12.86631145      -0.57709420       0.33795526      -0.55113513
S       13.92432375       1.98992940      11.78716105      -0.40096321      -0.90036882      -0.90910300
S        2.34758434       2.73479122      10.41274810       1.45058712      -0.89576586       0.93676129
Ba       4.54022303      10.52372835       4.80068831       0.97601241       0.02102700       1.43796502
Zr       1.97946861       9.18960713       2.18710307       0.92653125       0.47267524      -0.62040101
S       14.92994873       5.96576941       4.92521682       0.13893004      -0.74855591       0.24789998
S        2.70153957      11.55138384       2.80306394      -0.42841348      -0.50348057      -0.75171299
S        4.08419512       8.33011479       2.87153048       0.68461773      -0.10646592      -0.39949465
Ba       3.94915459       9.75220357       9.80025683       0.57172837      -0.93951461       0.06652299
Zr      15.26535608       5.18522524       7.14543372       1.19297390      -0.95316104       1.58911582
S        1.44250814       7.74831895       9.19841715       0.09971127       0.46285754      -2.30964565
S        2.08493632      10.68973535       6.92510528       0.01709553      -2.43573932      -0.91510869
S        3.76974332       7.26014712       6.25697348      -1.12813507       1.33376070      -0.19928681
Ba       3.39414077       8.85232443      14.78024853       0.30895794       0.32981613      -0.88794434
Zr       1.13434281       7.03481057      11.53472080       0.69102613       2.19460874      -0.24053928
S        0.99396940       6.78960299      13.97787351       0.59007576       0.25063345       0.13715197
S        1.75583570       9.54171553      11.94328392       0.17406617      -0.41270286       0.71036556
S        3.03971939       5.74689378      11.10863541       0.97516059      -0.20784761       0.01432167
Ba       7.35435901      -0.03088826       3.01482355      -0.20746905       0.36019201       0.38962717
Zr       4.60948475      -1.03820085       0.34883866      -0.68697592      -0.20053570      -0.29546247
S        7.39153928      12.29993693       5.57497645      -0.20571590      -0.90043988       0.66677368
S        5.31104349       1.13827349       1.31550867      -0.49711477      -0.36117140      -1.41086574
S        8.42847278       9.31068863      17.01928678      -0.35402248      -0.01244636       0.46804288
Ba       6.84776326      -0.68478455       7.94564635      -0.00001400      -0.07507087       0.34398382
Zr       6.94215835      11.86287163       8.03813069      -0.53708168      -0.70942698      -0.53578548
S        6.81964998      11.34946889      10.37263274       0.62922318       0.45232066      -0.53567735
S        5.16527191       0.16694136       5.40628987      -0.08850398      -0.19706416       0.08392407
S        9.23144210      10.80512606       7.76744352      -0.52384232       0.20025075       0.99645438
Ba       6.21042619      -1.71717340      12.76793633       0.25226959      -0.30032927      -0.87435535
Zr       3.70629832      -2.82336874       9.93845586      -0.74380537      -0.40793479      -0.81794298
S        3.33911745      -3.23592937      12.20651765      -0.24160400       0.63286245       0.27107361
S        4.58781031      -0.56560376      10.34013463      -0.47552192      -0.30323823      -0.06322987
S        8.82099903      10.13972697      12.75273777       0.66862003       0.06067023      -0.44244835
Ba       8.26918446       5.14812626       4.35056121       0.07816760       0.59155354      -0.05863111
Zr       5.82874103       3.44062409       1.28882237       0.03029299       0.13390278       0.77264625
S        6.41544847       2.87252804       3.64594489      -0.89016701       0.34695436       0.45088958
S        5.98560032       5.80513664       2.10491262       0.75793961      -1.06442804      -1.14854027
S        6.71807199       0.14914371      14.85950424      -0.82407918       0.66306640       0.53706255
Ba       8.01358946       4.21821148       8.93988699      -1.71961575       1.16668083      -0.25203809
Zr       5.44821584       2.45671175       6.01096714       0.54853889       1.34274950      -0.75766253
S        4.51132964       2.34876724       8.28511366       0.70614702      -0.01126659       0.19063225
S        5.97761434       4.92180627       6.31942620      -0.16356487      -0.04362672       0.24731662
S        7.58523453       2.17449545       7.01106153      -1.00169711      -0.83529373       0.16858205
Ba       7.07489190       2.84819861      13.63436268       1.10472715       0.12730632       0.70094848
Zr       4.73704600       1.81075400      10.69523700       0.01495980       0.57746929      -0.03444465
S        4.36225222       1.31398856      13.20465240      -0.29703469       0.24732303      -1.52805494
S        5.58546281       3.94439514      11.48224184      -0.39157821      -0.66584264      -0.61471563
S        7.12994604       1.42039887      10.38141729       0.56847461      -0.13634674       0.31086646
Ba       9.24562443       9.69913552       5.15113358      -0.85383066      -0.86214266      -1.46795485
Zr       5.03845303       5.24067180      16.18185076       0.36097923       2.19819227       1.54894690
S        6.78498194       8.01180734       4.55789000       0.01296502      -0.11308657       0.31037823
S        5.28239998       7.82758886      16.82482238       0.17441512      -0.91853008      -0.13523902
S        7.42409398       5.21711405      16.08515512       0.52746831      -0.54664159       0.12376977
Ba       8.54420266       8.58902266       9.98065464      -0.40415064      -0.01438362       0.45351382
Zr       6.06569815       7.32416903       6.88490710       0.76304749       0.16122596      -1.05403453
S        5.71888050       6.84036070       9.26602198      -0.02394706      -0.18613961       0.15767461
S        5.85475251       9.66075054       7.61192709       0.68983299       0.19789249      -0.63888817
S        8.64525334       7.38729893       7.31795475      -0.73802239      -0.22998279      -0.59598334
Ba       8.05162716       7.65401882      14.41805125      -0.63830464       0.37578981       0.55307894
Zr       5.41259644       6.30052545      11.59839412      -0.26960790       1.28023778      -0.34490061
S        4.72060241       6.10277216      13.93812272      -0.32946138      -0.43016038       1.22486570
S        5.70450808       8.74151142      12.29435060      -0.27329721      -0.42989418      -0.09320550
S        7.82625486       6.06330267      11.97486731       1.03428455      -0.56214792      -0.54638061
Ba      11.50006739      -0.51832122       3.20616351       0.47764727       0.14568972       1.19899627
Zr      10.75591148       8.98478796      17.33923205       1.70260913       0.17788910       0.28390299
S       11.85478197      11.07907320       5.43364344       0.39604942       0.17262265       0.23071113
S        9.68610587       0.32578807       1.07522519       0.11671102      -0.95356124      -1.23820241
S       12.93218095       7.72834203      17.28831147       0.58510040       0.65422267       0.20232785
Ba      11.28230631      -1.96709318       8.12864687      -0.98532296       0.80222114      -0.44956233
Zr      11.60163715      10.89028232       7.93244469       0.14000404       0.85467614       0.10057897
S       11.59058210      10.11218969      10.28484356      -0.90259518       0.53455532       1.15715509
S        8.81410530      -0.50217012       5.54558694       0.15712784      -0.90788753       0.12003671
S       11.08396587      -2.76613575       5.12612804       1.55650447      -0.15260570       0.10086650
Ba      10.89888263      -2.61740658      12.49773856      -0.38550946      -0.49483949       0.50372359
Zr      11.21127429       9.74303935      12.68639609       0.00367131       0.97374803      -0.02486130
S        8.22208287      -4.16699576      12.11513416       0.05818342       0.47324672       1.66130619
S        8.68681128      -1.53485416      10.30234963      -0.69264870      -1.43457504      -0.08795536
S       13.65596708       9.35634795      13.02442750      -1.10481909       0.00172919      -0.69163635
Ba      12.48573406       4.34686372       4.31416902      -0.00516523      -0.86566917       0.50037667
Zr      10.41295129       2.67444669       1.44535118      -1.61372479       0.87976521       1.06869958
S        9.48981000       2.32164037       3.83791269       0.32805741      -0.25895214      -1.17617285
S       10.31285234       5.08486231       2.10906590       0.04275499      -0.41198332      -0.03257462
S       12.64871236       2.49568857       1.92873875       0.69065166      -0.21953884       0.30577599
Ba      12.52660640       3.01861186       9.03177741      -0.54124107      -0.81864909       0.69291025
Zr       9.80641404       1.82448016       6.19802345       1.18316577      -1.74120657      -0.19183768
S       10.13810834       0.82437835       8.50877187       0.12729471       0.34295307      -0.64716789
S       10.12983888       4.12214162       6.58709840      -0.06450829       1.50509670       0.43247737
S       12.13460906       1.27390084       5.81231995       0.35835133       0.01024222      -0.30941376
Ba      12.25454024       2.04271419      14.01340770      -1.41435418      -0.76467196       0.40744090
Zr       9.53107503       0.64776391      10.89995765      -2.19074417       1.44880675      -0.73239316
S        9.47224935       0.31316807      13.36488971       0.33500371       0.53748539      -1.04442675
S        9.97723968       3.19085845      10.61209917       0.50250938      -1.94257104       1.40637514
S       11.59822304      -0.37893282      10.95297940       0.31930813       0.26303627      -0.15796985
Ba      14.20305089       8.62377341       5.37302360      -1.49535964       1.53065541      -0.76495614
Zr       9.90648922       4.55692360      16.49290420      -0.83245008      -1.08252955       1.00281678
S       11.07673327       7.15588344       4.85503522       0.30982829       0.16128012      -1.25867695
S       10.40687872       6.78247298      16.27931879      -0.34497398       0.21062819      -0.32328523
S       12.24104944       3.70758527      16.41774150      -1.78359936       1.16324807       0.07558348
Ba      13.01847525       7.51596757      10.36234424       1.40814184      -0.67045893      -0.11755106
Zr      10.89056168       6.51940083       7.25479163      -0.71007831       0.66834009      -0.17186345
S       10.57361815       5.89430082       9.58276229      -0.33978179       1.12724587       0.25233085
S       12.26955749       8.56905386       7.71230325      -0.47103793      -1.56912789      -0.54832153
S       12.83858495       5.17707152       7.37316834       2.02028627       0.81977718      -0.75720414
Ba      13.15372999       6.37033832      14.41792049      -0.09835756       0.62032466       1.20785075
Zr      10.18023592       5.13227873      11.97476530       0.48512739       0.47856539      -0.88839844
S        9.94478746       4.19869094      14.08019834       0.14865647      -0.60663192      -0.02856317
S       10.67983325       7.35183121      12.87770730       0.77336170       0.82903170      -0.46312305
S       12.81332959       4.93485272      11.82402284      -1.69283334      -0.20165577       0.40616829
320
Lattice="16.12788228 10.30941141 0.10519998 -10.63425211 16.55546446 3.40404248 1.59424382 -2.93552335 19.11060035" Properties=species:S:1:pos:R:3:forces:R:3 energy=-602.8826422691345 pbc="T T T"
Ba       0.79989031       3.21000844       2.91495393       0.67135684      -0.38714986      -0.20940852
Zr      17.62682443       7.38777579      19.02752222       0.49326659       0.62293861      -1.22504866
S       15.95994027       9.75847062       2.26457516      -0.31385737      -0.43271319       1.17434217
S       16.35142602       9.37409674      19.58706377      -0.02412596      -0.45312284       0.51056619
S        1.99413557       1.10430915       0.84849470      -0.81206726      -0.38011270      -0.18466978
Ba       1.92918248       2.36068157       7.30298927      -0.68092390      -0.48114691      -0.00877577
Zr       5.94620108      25.97962295       7.87957559       0.13804759       1.50843084       1.97490547
S        0.69395444      -0.96608269       6.94112044       1.39603648       0.19910054       0.23055321
S       15.15405877      11.55992271       5.21496523       0.17764278       0.31860295      -0.68236092
S        2.33739015       0.99907951       4.33906187       0.02820903      -1.15800946       0.28214291
Ba       1.74648912       1.56268820      12.29385906      -0.12794984      -0.87480359      -0.53081775
Zr       6.27822872      25.35296471      12.80562694      -0.63654110      -1.20567999       0.78664374
S        5.85255875      24.58106496      15.36410868       1.53288012       0.44946943       0.39929215
S       15.30997721      10.35487195      10.44147581       0.11657968       1.84820129      -1.20127071
S        2.55248561       0.05356642       9.30374926       0.91740501       0.55704246       1.05963174
Ba       2.35628743       1.07028927      16.79185855      -0.71383261      -0.36754622       1.39424599
Zr      -9.31043838      14.39198779      17.69621496      -1.73561342      -0.48521299      -0.67345661
S        1.54342796      -1.84117058      16.67398008       0.58767622      -0.93901002       0.88986488
S       15.87853206      10.10470899      14.54096566      -0.62273444       0.88572979       0.55088975
S        3.04871963      -0.62372569      13.71231252      -0.38851721      -0.01360642       0.68667107
Ba      -1.75588672       7.16976280       3.67432296      -0.84400054       1.02921099      -0.21518652
Zr      13.48952523      14.16714762       1.20507347      -0.91985413       2.02955669      -2.35437065
S       -1.85861576       4.26731679       3.22958475      -0.30905653      -0.44456660       2.57640306
S       -3.93394229       6.19821046       1.49922417      -0.64304005       0.14614978      -0.35631490
S        0.94253597       2.22590602      19.52931459       0.59708298       1.10315280      -0.23305193
Ba      -0.87229801       6.54440765       8.58993008      -0.54894993      -0.50907583      -0.27787671
Zr      -2.19908749       3.46230947       5.73340491       1.17917558      -0.86307591      -0.39197245
S       13.83729199      12.90998242       8.11120793      -0.45802295       0.29806970       0.01513902
S       -3.12618558       5.70479161       6.23895014       0.01192590      -0.86441800      -0.28945115
S        0.11228250       4.45960184       6.17717113      -0.48484463       0.12806923      -0.22427053
Ba      -1.02864681       5.39139521      13.26472756       0.13042155       0.80053009      -0.26433780
Zr      -1.57394153       2.43258098      10.37325239      -1.36811708      -0.34343180      -0.62061199
S       -1.17157624       2.34519507      12.72060105      -0.05439663       0.82105117       0.09296390
S       12.70630491      14.84933480      10.98019117       1.51504764      -0.33373312      -0.06647299
S        0.31658115       3.77660662       9.77395757      -0.04450677      -0.15636283      -0.15283074
Ba      -0.65228959       4.38296616      17.93937800      -0.19095281       1.27681470       0.78393241
Zr      14.49132963      12.23090211      15.16022876       1.49531095      -1.78385801       1.69467769
S       14.55351054      11.82575371      17.64963920      -0.83574005      -0.98185205       0.22279638
S       13.30996888      14.27488391      15.59846378       0.29527667       0.28565645      -0.08296736
S        0.66526738       3.00406959      15.69012716      -0.83254000       1.02631449      -1.35622200
Ba      -4.59221984      11.20016683       4.72844469       0.52394909       0.32428198      -0.79688670
Zr      -5.35281145       8.39821985       1.73791095       0.62630195      -0.97176188      -0.55207434
S       10.40515266      17.99759982       4.30839109       0.16907915      -0.01098626       0.13543103
S       10.83756194      17.70524745      21.19316222       0.10251197       0.12132547       0.60920320
S       -3.35744943       9.59151219       2.28680755       0.55289905       0.19562055       0.31354905
Ba      -3.82680279      10.37543019       9.11164954      -0.48967556       1.36708461      -0.20768638
Zr      -4.66541848       7.53395170       6.42641954      -1.49040401       0.37376176       0.43682796
S       -4.13890033       7.55118599       8.93002490       0.36608083      -0.62713434      -0.21388777
S        9.75731205      19.99502731       7.25605434       1.40513873      -1.51245275      -0.89008970
S       -2.98865584       9.07710645       5.83942273       1.16104581      -0.09255573       0.62315688
Ba      -3.97902919       9.31107795      14.21951096       0.46944574       1.24928334       0.52255095
Zr      11.59615939      16.94483011      11.26662165       0.31213920       1.08152417       0.27058649
S       11.38258046      16.53424735      13.67005670      -0.35072625      -0.39594180       0.44320809
S       -5.79896352       8.81623093      11.80414506      -0.30261568       0.13475215      -0.72395164
S       -2.38921062       8.06398393      12.12208569      -0.46351045      -0.69606829      -1.41670939
Ba      -3.26361789       8.97416271      19.04456110       0.07416650       0.04848923      -0.58254435
Zr      12.07266368      16.28267045      15.98104984       0.07783943       1.22694801       1.20074089
S       -3.62919509       6.09276017      18.35863884       0.42636132      -1.16167583       0.57332617
S       10.50489199      18.32606811      16.65097283       0.28576237      -0.44258694      -0.73747116
S       -1.97682186       7.29533219      15.46391687      -1.19836961      -1.12027921       0.07069669
Ba      -7.06265589      15.29772836       5.45034528       0.52945596       0.67781390      -0.05341002
Zr       9.54860508      19.78008829      21.76361720       1.28931621      -0.13437480      -2.26481931
S       -7.24919520      12.43974791       4.80243067      -0.68505917      -0.38657627       0.23303651
S       -7.67910823      11.57613837      22.04047688      -0.49214945       0.53916238       0.12389711
S       -4.36017851      10.69452854      21.12035308      -0.42936394       0.34453118       0.61932837