[{"__ndarray__": [[69, 69], "float64", [53.99447108114843, -0.002100718690604281, -0.6600242050616112, 16.00552891899555, -0.0007002395102697348, 0.6600242051206228, -16.023281057163388, -0.0021007186905997793, 0.6483164496342658, 15.987776780711076, -0.0007002395102687513, -0.671731960564023, -0.0177521382200599, 1.955399350271457e-11, 2.2077535370062203e-11, -0.017752138220059086, -0.0014004790400873467, 2.2077535370062148e-11, 6.86944643860882e-11, 1.9553993502714588e-11, -0.01170775546341294, 6.869446438608825e-11, -0.0014004790400854287, -0.011707755463416507, 0.4180136361421395, -0.2579759275171943, 0.4708261423089617, 0.4180136361421378, 0.25657544846284164, 0.4708261423089611, -0.453517912687492, 0.25517496952079066, -0.4942416531606531, -0.45351791268749503, -0.25937640670861994, -0.49424165316065627, -0.47127005093894764, 0.25517496952078444, 0.48253389771635863, -0.47127005093893987, -0.25937640670861734, 0.48253389771635796, 0.43576577449169446, -0.25797592751719534, -0.5059494086521152, 0.435765774491692, 0.2565754484628417, -0.5059494086521046, 2.53163499723495, -0.0021007186906047896, 0.3809397568767926, -2.5671392737154766, -0.000700239510266135, -0.40435526780216063, 2.5493871355272524, -0.0021007186906047523, -0.4160630232696396, -2.5493871353859414, -0.0007002395102670705, 0.392647512340491, -2.532750425413743, -1.83080693822058e-31, 0.0, 3.325840656090563e-34, 4.192239283245169, 0.0, 0.0, 0.0, 1.9660807552081732, -0.002100718690604281, 62.858798453590616, 0.04918224008613407, 0.002100718121540521, -2.380400515350126, -0.04918224035657916, 0.07083872181862863, -7.141201546409403, 0.0023142682359913076, 0.07504015839559754, -2.3804005153501304, 0.10067874887843464, 0.0729394400503468, 2.8026016481179447e-10, -1.380286831652302e-10, 0.07293944005033545, -4.760801030980534, -1.3802868316523014e-10, -3.207227837116707e-10, 2.8026016481179447e-10, 0.051496508532084935, -3.207227837116707e-10, -4.760801030980543, 0.05149650853209319, 0.06981819403651063, -2.393390304418583, 0.0720413933625895, 0.06981819403651696, -2.367410725987429, 0.07204139336259996, 0.07606068666143935, -7.128211758071638, 0.030951623606797804, 0.07606068666144776, -7.154191335217037, 0.030951623606801607, 0.1490001268293248, -7.128211758071593, 0.020544884980744697, 0.1490001268293107, -7.1541913352170505, 0.020544884980753193, -0.003121246856338184, -2.393390304418582, 0.08244813233985002, -0.0031212468563293974, -2.3674107259874355, 0.08244813233983186, 0.11222557087021434, -7.141201546409378, 0.03299363712041486, 0.03365330935236456, -2.380400515350143, 0.06999938008814593, 0.03928613040432978, -7.141201546409384, 0.12149588866528685, -0.039286131047317714, -2.3804005153501366, -0.018502871658249966, -0.10350386696626479, 1.1236666685889915e-31, 0.0, -6.887421226793227e-34, -2.1701792841431597, 0.0, 0.0, 0.0, -0.5051134186865341, -0.6600242050616112, 0.04918224008613407, 54.34131374298029, 0.6600242032563365, 0.016394080271433607, 15.658686256093418, -0.4460759283077109, 0.0491822400860834, 15.808016734589355, 0.8739724793940805, 0.016394080271420447, -15.509355777995859, 0.21394827540551664, 6.887235837405058e-10, -4.616443728725313e-10, 0.21394827540548456, 0.03278815985407028, -4.616443728725311e-10, -9.876611180931556e-10, 6.887235837405058e-10, 0.14933047821836085, -9.876611180931559e-10, 0.032788159854042306, 0.1493304782183861, 0.16705378007025115, 0.1425152958729768, -0.26957745529148713, 0.16705378007026633, -0.10972713450181293, -0.26957745529145793, 0.2608427724622596, -0.0769389775903685, 0.5682384114325972, 0.260842772462285, 0.1753034563623426, 0.5682384114326108, 0.47479104824784085, -0.07693897759024229, -0.4189079331131589, 0.4747910482478003, 0.17530345636230782, -0.4189079331131364, -0.04689449781922947, 0.14251529587297493, 0.7175688902996504, -0.046894497819204586, -0.109727134501833, 0.717568890299596, -2.3490888612118996, 0.04918224008614622, 0.10516668557980088, 2.776985412369558, 0.01639408027138601, 0.19349427126072055, -2.5630371378674948, 0.04918224008613493, 0.34282474971292803, 2.5630371358774915, 0.016394080271401636, -0.04416379339821058, 1.01482123506297, 3.491435317222241e-31, 0.0, -1.7561851373615343e-33, -16.01934450380839, 0.0, 0.0, 0.0, 1.8450993574671957, 16.00552891899555, 0.002100718121540521, 0.6600242032563365, 53.99447108086048, 0.0007002393205818417, -0.6600242033153493, 16.02328105432486, 0.002100718121535989, -0.6483164498719448, -15.987776783837496, 0.0007002393205808451, 0.6717319567157942, 0.01775213523758371, -1.9554004792751408e-11, -2.2077530107448718e-11, 0.01775213523758288, 0.001400478660711516, -2.2077530107448718e-11, -6.869445229158212e-11, -1.9554004792751427e-11, 0.011707753420460128, -6.869445229158217e-11, 0.0014004786607096358, 0.011707753420463646, -0.41801363907857264, 0.2579759281604137, -0.47082614536158757, -0.4180136390785698, -0.2565754494854361, -0.4708261453615871, 0.4535179096589718, -0.2551749709227612, 0.4942416521273733, 0.4535179096589734, 0.2593764069724629, 0.49424165212737575, 0.4712700449279504, -0.2551749709227543, -0.48253389872603153, 0.4712700449279432, 0.2593764069724594, -0.48253389872603153, -0.4357657744456501, 0.25797592816041404, 0.5059494055758819, -0.4357657744456489, -0.256575449485436, 0.5059494055758722, -2.5316350019264293, 0.002100718121541012, -0.3809397581385296, 2.567139272442003, 0.000700239320578241, 0.40435526497799434, -2.549387137236255, 0.002100718121540989, 0.41606301840252086, 2.549387137094944, 0.0007002393205791716, -0.3926475115592771, 2.532750430781958, 1.8308068904031317e-31, 0.0, -3.325840479617168e-34, -4.192239202062515, 0.0, 0.0, 0.0, -1.966080735239251, -0.0007002395102697348, -2.380400515350126, 0.016394080271433607, 0.0007002393205818417, 69.20653316158992, -0.01639408036158198, 0.02361290790953865, -2.3804005153501313, 0.0007714229067978338, 0.02501338666199801, -0.793466838410153, 0.03355958360639012, 0.02431314726684614, 9.342005640245222e-11, -4.600956226987062e-11, 0.02431314726684247, -1.58693367691373, -4.600956226987058e-11, -1.0690759719657387e-10, 9.342005640245222e-11, 0.017165503248217896, -1.0690759719657389e-10, -1.5869336769137334, 0.017165503248220623, 0.023272732017656828, -0.7977967682129996, 0.024013798352517948, 0.023272732017659, -0.7891369085092235, 0.02401379835252144, 0.02535356271512071, -2.3760705857908464, 0.010317208112324042, 0.02535356271512364, -2.3847304450660376, 0.01031720811232529, 0.0496667100211467, -2.3760705857908313, 0.0068482951543798656, 0.049666710021141855, -2.3847304450660425, 0.00684829515438269, -0.0010404155300230917, -0.7977967682129997, 0.027482711427531174, -0.00104041553002016, -0.7891369085092259, 0.027482711427525133, 0.037408524428350416, -2.3804005153501224, 0.010997879354917136, 0.01121777014597053, -0.793466838410157, 0.02333312718964904, 0.01309537702299179, -2.3804005153501246, 0.04049863045288544, -0.013095377237321102, -0.793466838410155, -0.006167623975494079, -0.03450128893006847, 3.7455556552662203e-32, 0.0, -2.2958071190948434e-34, -0.7233931056500698, 0.0, 0.0, 0.0, -0.16837114137038897, 0.6600242051206228, -0.04918224035657916, 15.658686256093418, -0.6600242033153493, -0.01639408036158198, 54.341313744832895, 0.44607592688347186, -0.04918224035652853, -15.808016734680283, -0.8739724809363378, -0.01639408036156885, 15.509355776052361, -0.21394827688876317, -6.887235894720252e-10, 4.6164437503655603e-10, -0.21394827688873105, -0.03278816003436698, 4.616443750365558e-10, 9.876611240992392e-10, -6.887235894720252e-10, -0.14933047923557374, 9.876611240992392e-10, -0.03278816003433902, -0.14933047923559892, -0.16705378152490247, -0.14251529553247827, 0.26957745377183956, -0.1670537815249173, 0.10972713398101724, 0.26957745377181014, -0.2608427739741015, 0.0769389768892755, -0.5682384119473758, -0.2608427739741257, -0.1753034562021408, -0.5682384119473884, -0.4747910512429295, 0.07693897688914855, 0.41890793261072445, -0.47479105124288845, -0.17530345620210575, 0.4189079326107009, 0.04689449784782368, -0.14251529553247572, -0.7175688918316409, 0.046894497847799727, 0.10972713398103753, -0.7175688918315868, 2.349088858877871, -0.0491822403565914, -0.10516668616882788, -2.776985413002022, -0.016394080361534377, -0.1934942727061195, 2.563037137016713, -0.04918224035658007, -0.3428247521755408, -2.5630371350267103, -0.01639408036155004, 0.04416379382639905, -1.014821232342746, -3.4914353389919665e-31, 0.0, 1.7561851466506087e-33, 16.019344545359512, 0.0, 0.0, 0.0, -1.845099347231955, -16.023281057163388, 0.07083872181862863, -0.4460759283077109, 16.02328105432486, 0.02361290790953865, 0.44607592688347186, 49.950635173358485, 0.07083872181854739, 0.6865942161517595, 11.997197283736767, 0.023612907909516465, -0.20555763812150085, -4.026083771723934, 1.3898926989505174e-09, -7.233739999756909e-10, -4.026083771723988, 0.04722581442906314, -7.233739999756904e-10, -1.59135114725166e-09, 1.3898926989505174e-09, 0.2405182888946582, -1.59135114725166e-09, 0.04722581442901655, 0.240518288894697, -5.785316046656159, -0.35182113095452733, 0.8571922557431815, -5.785316046656137, 0.39904694822113984, 0.857192255743231, -2.266851493913026, 0.4462727572138455, -0.37615567837913855, -2.266851493912986, -0.30459531571920767, -0.37615567837912084, -6.292935265044497, 0.4462727572140549, 0.6166739675434659, -6.292935265044561, -0.3045953157192689, 0.6166739675435065, -1.7592322790713617, -0.35182113095452777, -0.13563738845941264, -1.7592322790713222, 0.39904694822110354, -0.1356373884594938, -1.2862521715375828, 0.07083872181864925, 0.5159049525775441, -6.765915371332087, 0.023612907909459704, -0.034868374098018406, 2.739831598107893, 0.07083872181862955, 0.20564991508292219, -2.739831601314285, 0.023612907909485562, 0.2753866624230671, -3.178350570415312, 3.92639061529083e-31, 0.0, -2.204235067338769e-33, -5.4130261965822655, 0.0, 0.0, 0.0, -0.6449512530353283, -0.0021007186905997793, -7.141201546409403, 0.0491822400860834, 0.002100718121535989, -2.3804005153501313, -0.04918224035652853, 0.07083872181854739, 62.85879845359059, 0.0023142682359827693, 0.0750401583955071, -2.3804005153501357, 0.10067874887832479, 0.07293944005026118, 2.802601648114671e-10, -1.3802868316505279e-10, 0.07293944005024938, -4.760801030980547, -1.380286831650527e-10, -3.207227837112911e-10, 2.802601648114671e-10, 0.05149650853202552, -3.207227837112911e-10, -4.760801030980555, 0.05149650853203379, 0.06981819403642679, -2.3933903044185625, 0.07204139336250054, 0.06981819403643227, -2.3674107259874577, 0.07204139336251053, 0.0760606866613516, -7.128211758071682, 0.030951623606768536, 0.07606068666136004, -7.154191335217029, 0.03095162360677249, 0.1490001268291511, -7.128211758071639, 0.020544884980714734, 0.14900012682913652, -7.154191335217043, 0.020544884980723238, -0.003121246856336371, -2.3933903044185625, 0.08244813233976203, -0.0031212468563276887, -2.367410725987466, 0.08244813233974392, 0.11222557087007982, -7.141201546409397, 0.03299363712038053, 0.03365330935232688, -2.380400515350148, 0.06999938008806163, 0.03928613040428138, -7.141201546409403, 0.12149588866514334, -0.039286131047269364, -2.380400515350143, -0.01850287165822461, -0.10350386696611141, 1.123666668587657e-31, 0.0, -6.887421226786693e-34, -2.170179284140871, 0.0, 0.0, 0.0, -0.5051134186859324, 0.6483164496342658, 0.0023142682359913076, 15.808016734589355, -0.6483164498719448, 0.0007714229067978338, -15.808016734680283, 0.6865942161517595, 0.0023142682359827693, 50.53280738736065, -0.6100386835274735, 0.0007714229067949776, 12.148840856756829, 0.03827776625718926, 2.5943645606950877e-10, -5.131011057262878e-11, 0.038277766257183, 0.001542845554144346, -5.131011057262873e-11, -1.5159360880323555e-10, 2.5943645606950877e-10, -3.6591758779465464, -1.5159360880323545e-10, 0.0015428455541385121, -3.6591758779465424, 0.0793616283183503, -0.20290156145359323, -4.992262227800059, 0.07936162831835451, 0.20444440745879605, -4.992262227800053, -0.002806095460932717, 0.2059872521465585, -2.3260895281454053, -0.002806095460927388, -0.2013587158784977, -2.3260895281454035, 0.03547167083993799, 0.2059872521465797, -1.3330863497328793, 0.03547167083993058, -0.20135871587850782, -1.333086349732874, 0.04108386160236596, -0.20290156145359153, -5.985265406014599, 0.04108386160236946, 0.2044444074587918, -5.985265406014604, 2.732904032998017, 0.002314268235993386, -5.536354988757275, -2.6563485004051373, 0.0007714229067882512, -1.7819967670660086, 2.6946262665157543, 0.0023142682359910682, -5.441172645048793, -2.694626266820774, 0.0007714229067912852, -1.87717911091619, -1.4519343237874127, 4.587505076962825e-32, 0.0, -8.781265096773779e-35, 9.31693952206503, 0.0, 0.0, 0.0, -3.6413508494444327, 15.987776780711076, 0.07504015839559754, 0.8739724793940805, -15.987776783837496, 0.02501338666199801, -0.8739724809363378, 11.997197283736767, 0.0750401583955071, -0.6100386835274735, 50.02164371802365, 0.02501338666197388, 1.1379062777529778, -3.9905794994035517, 1.350784697175125e-09, -7.675290631710945e-10, -3.990579499403606, 0.05002677197307736, -7.67529063171094e-10, -1.7287400588499528e-09, 1.3507846971751249e-09, 0.2639337969893522, -1.728740058849953e-09, 0.05002677197302685, 0.2639337969893981, -6.621343323083617, 0.16413072490971112, -0.08446003304689165, -6.62134332308359, -0.11410395007055232, -0.08446003304683936, -1.3598156726343382, -0.06407718372990656, 0.6123276264500526, -1.359815672634291, 0.2141574979917205, 0.612327626450075, -5.350395171382632, -0.06407718372968313, -0.34839382922926676, -5.350395171382706, 0.21415749799165415, -0.34839382922922446, -2.6307638280781944, 0.1641307249097108, 0.8762614245205695, -2.63076382807815, -0.11410395007058866, 0.8762614245204683, -6.349522172398423, 0.0750401583956192, -0.2459745629289718, -1.6316368257496667, 0.025013386661911864, 0.7738421575949699, -2.3589426752178175, 0.07504015839559927, 1.0377759548787364, 2.358942671728805, 0.025013386661939606, -0.5099083611787117, 1.8871502858660338, 7.588004426409891e-31, 0.0, -2.8694031720019473e-33, -13.797504656732452, 0.0, 0.0, 0.0, -4.577112737567246, -0.0007002395102687513, -2.3804005153501304, 0.016394080271420447, 0.0007002393205808451, -0.793466838410153, -0.01639408036156885, 0.023612907909516465, -2.3804005153501357, 0.0007714229067949776, 0.02501338666197388, 69.2065331615899, 0.033559583606361035, 0.024313147266822925, 9.342005640236577e-11, -4.600956226982542e-11, 0.024313147266819303, -1.5869336769137339, -4.6009562269825395e-11, -1.0690759719647167e-10, 9.342005640236577e-11, 0.017165503248201913, -1.0690759719647167e-10, -1.586933676913737, 0.017165503248204636, 0.023272732017633954, -0.7977967682129938, 0.024013798352493874, 0.02327273201763612, -0.7891369085092322, 0.02401379835249724, 0.025353562715097273, -2.3760705857908593, 0.010317208112316189, 0.025353562715100243, -2.384730445066035, 0.010317208112317448, 0.04966671002110007, -2.3760705857908433, 0.006848295154371672, 0.049666710021095316, -2.38473044506604, 0.0068482951543745625, -0.0010404155300227664, -0.7977967682129941, 0.02748271142750738, -0.001040415530019839, -0.7891369085092349, 0.027482711427501347, 0.03740852442831449, -2.380400515350128, 0.010997879354908407, 0.011217770145960131, -0.7934668384101584, 0.023333127189625786, 0.013095377022979011, -2.38040051535013, 0.0404986304528463, -0.013095377237308333, -0.7934668384101567, -0.006167623975486793, -0.0345012889300238, 3.745555655262654e-32, 0.0, -2.2958071190933877e-34, -0.7233931056494614, 0.0, 0.0, 0.0, -0.16837114137022316, -0.671731960564023, 0.10067874887843464, -15.509355777995859, 0.6717319567157942, 0.03355958360639012, 15.509355776052361, -0.20555763812150085, 0.10067874887832479, 12.148840856756829, 1.1379062777529778, 0.033559583606361035, 51.13012930389094, 0.4661743194854474, 1.6368836320684233e-09, -9.745988602211422e-10, 0.46617431948537724, 0.06711916557573518, -9.745988602211416e-10, -2.1269158550781915e-09, 1.6368836320684233e-09, -3.360514919838181, -2.1269158550781915e-09, 0.06711916557567338, -3.360514919838127, 0.4134691908977247, 0.08212902977039462, -5.531417135924983, 0.4134691908977586, -0.015009860709414818, -5.531417135924919, 0.5188794518591664, 0.052109298114686564, -1.189612704394973, 0.518879451859221, 0.149248196637672, -1.1896127043949472, 0.9850537721484258, 0.052109298114961705, -2.1709022151727906, 0.9850537721483357, 0.14924819663759256, -2.1709022151727364, -0.05270513401444757, 0.08212902977039266, -4.550127622858412, -0.05270513401439372, -0.0150098607094597, -4.550127622858533, -1.9652736857175745, 0.10067874887846126, -5.326021616614119, 2.8976223254602216, 0.033559583606285366, -1.395008222184836, -2.431448007928253, 0.10067874887843621, -4.7555231415915635, 2.431448003643229, 0.03355958360631969, -1.9655066984007012, 0.577708141706788, 7.441621178238164e-31, 0.0, -3.6001829426368374e-33, -22.721749549475845, 0.0, 0.0, 0.0, 0.04884784922730656, -0.0177521382200599, 0.0729394400503468, 0.21394827540551664, 0.01775213523758371, 0.02431314726684614, -0.21394827688876317, -4.026083771723934, 0.07293944005026118, 0.03827776625718926, -3.9905794994035517, 0.024313147266822925, 0.4661743194854474, 65.99166836415864, 1.3703386972176513e-09, -7.454515309367034e-10, -4.008331635841456, 0.04862629316322635, -7.45451530936703e-10, -1.6600456017862722e-09, 1.3703386972176513e-09, 0.25222604274938265, -1.6600456017862722e-09, 0.04862629316317769, 0.25222604274942517, -6.203329685156159, -0.09384520297258947, 0.3863661110596806, -6.203329685156138, 0.14247149898763062, 0.38636611105973, -1.8133335835427307, 0.19109778661646212, 0.11808597393867634, -1.813333583542686, -0.045218908851768255, 0.11808597393869695, -5.8216652187602715, 0.1910977866166786, 0.1341400690612573, -5.821665218760336, -0.04521890885183283, 0.1341400690612982, -2.1949980535833884, -0.09384520297258986, 0.3703120177411757, -2.1949980535833458, 0.14247149898759456, 0.3703120177410842, -3.817887172374362, 0.07293944005036805, 0.13496519469310553, -4.198776098689838, 0.02431314726676359, 0.3694868914944117, 0.19044446131633957, 0.07293944005034822, 0.6217129345341439, -0.19044446466404114, 0.024313147266790396, -0.11726084931638117, -0.6456001417791875, 5.757197516355259e-31, 0.0, -2.536819117768008e-33, -9.605265420367912, 0.0, 0.0, 0.0, -2.6110319935703656, 1.955399350271457e-11, 2.8026016481179447e-10, 6.887235837405058e-10, -1.9554004792751408e-11, 9.342005640245222e-11, -6.887235894720252e-10, 1.3898926989505174e-09, 2.802601648114671e-10, 2.5943645606950877e-10, 1.350784697175125e-09, 9.342005640236577e-11, 1.6368836320684233e-09, 1.3703386972176513e-09, 70.0, -2.8077581178379284e-18, 1.3703386972174424e-09, 1.86840108917078e-10, -2.8077581178379265e-18, -6.126815733586519e-18, 3.887347406655667e-18, 9.481600436907897e-10, -6.126815733586519e-18, 1.8684010891689237e-10, 9.481600436909487e-10, 1.4761321821516392e-09, -2.1167400833311064e-10, 1.3813640508834935e-09, 1.4761321821517422e-09, 3.9851412598806086e-10, 1.381364050883682e-09, 1.2645452220403135e-09, 5.853542175383611e-10, 5.14956034520724e-10, 1.2645452220404742e-09, -2.483389555932194e-11, 5.149560345208019e-10, 2.6348839219683023e-09, 5.853542175391774e-10, 4.332040096901105e-10, 2.6348839219680418e-09, -2.483389555956376e-11, 4.332040096902612e-10, 1.0579347024445604e-10, -2.1167400833311165e-10, 1.4631160819232941e-09, 1.0579347024461036e-10, 3.985141259879261e-10, 1.4631160819229564e-09, 1.973346543852781e-09, 2.802601648118716e-10, 6.759972686973866e-10, 7.673308524643279e-10, 9.342005640214138e-11, 1.2203228207956763e-09, 6.030078390245814e-10, 2.8026016481179876e-10, 2.1684828658383978e-09, -6.030078513702336e-10, 9.342005640224212e-11, -2.721627793241068e-10, -2.020846589587198e-09, 2.1655211602657342e-39, 0.0, -1.0074334445518133e-41, -3.066667172216792e-08, 0.0, 0.0, 0.0, -8.302766202206201e-09, 2.2077535370062203e-11, -1.380286831652302e-10, -4.616443728725313e-10, -2.2077530107448718e-11, -4.600956226987062e-11, 4.6164437503655603e-10, -7.233739999756909e-10, -1.3802868316505279e-10, -5.131011057262878e-11, -7.675290631710945e-10, -4.600956226982542e-11, -9.745988602211422e-10, -7.454515309367034e-10, -2.8077581178379284e-18, 70.0, -7.454515309365923e-10, -9.201912173173143e-11, 1.061076698499321e-18, 2.9905967385802432e-18, -2.8077581178379284e-18, -5.129544851478063e-10, 2.9905967385802432e-18, -9.201912173162906e-11, -5.129544851478914e-10, -7.407774090640863e-10, 1.628310511586424e-10, -7.614030995716162e-10, -7.407774090641397e-10, -2.5485017867232464e-10, -7.614030995717162e-10, -7.50125658901734e-10, -3.468692888211022e-10, -2.645058696524745e-10, -7.501256589018216e-10, 7.081192761539259e-11, -2.6450586965251374e-10, -1.4955771908113782e-09, -3.4686928882154505e-10, -2.4844861640715265e-10, -1.4955771908112386e-09, 7.081192761551977e-11, -2.484486164072363e-10, 4.674130050061605e-12, 1.628310511586458e-10, -7.774603564185536e-10, 4.674130049976225e-12, -2.548501786722497e-10, -7.774603564183802e-10, -1.1627392098524116e-09, -1.3802868316527108e-10, -3.093598761569785e-10, -3.2816385350132346e-10, -4.6009562269703994e-11, -7.165490954592457e-10, -4.172876748668371e-10, -1.380286831652306e-10, -1.2295035807182911e-09, 4.172876809075646e-10, -4.600956226975934e-11, 2.0359461094053114e-10, 1.357409237443655e-09, -1.0896586632484398e-39, 0.0, 4.7881223566875507e-42, 2.060029292829954e-08, 0.0, 0.0, 0.0, 5.034918858872435e-09, -0.017752138220059086, 0.07293944005033545, 0.21394827540548456, 0.01775213523758288, 0.02431314726684247, -0.21394827688873105, -4.026083771723988, 0.07293944005024938, 0.038277766257183, -3.990579499403606, 0.024313147266819303, 0.46617431948537724, -4.008331635841456, 1.3703386972174424e-09, -7.454515309365923e-10, 65.99166836415853, 0.048626293163218676, -7.454515309365919e-10, -1.6600456017860245e-09, 1.3703386972174424e-09, 0.25222604274934457, -1.6600456017860245e-09, 0.048626293163169985, 0.25222604274938687, -6.203329685156211, -0.09384520297257556, 0.3863661110596197, -6.203329685156185, 0.14247149898760922, 0.3863661110596699, -1.8133335835427888, 0.19109778661643279, 0.1180859739386603, -1.8133335835427449, -0.04521890885176218, 0.11808597393868106, -5.8216652187603835, 0.19109778661664917, 0.13414006906123516, -5.821665218760453, -0.04521890885182628, 0.134140069061276, -2.1949980535833835, -0.09384520297257584, 0.3703120177411219, -2.1949980535833418, 0.14247149898757305, 0.3703120177410304, -3.8178871723744474, 0.07293944005035619, 0.1349651946930843, -4.198776098689858, 0.02431314726675992, 0.36948689149435565, 0.1904444613163063, 0.0729394400503369, 0.62171293453405, -0.19044446466400788, 0.02431314726678672, -0.11726084931636305, -0.645600141779077, 5.757197516354405e-31, 0.0, -2.5368191177676195e-33, -9.605265420366427, 0.0, 0.0, 0.0, -2.6110319935699717, -0.0014004790400873467, -4.760801030980534, 0.03278815985407028, 0.001400478660711516, -1.58693367691373, -0.03278816003436698, 0.04722581442906314, -4.760801030980547, 0.001542845554144346, 0.05002677197307736, -1.5869336769137339, 0.06711916557573518, 0.04862629316322635, 1.86840108917078e-10, -9.201912173173143e-11, 0.048626293163218676, 66.82613264598574, -9.201912173173139e-11, -2.1381518826576582e-10, 1.86840108917078e-10, 0.03433100554818773, -2.1381518826576587e-10, -3.1738673540143263, 0.034331005548193176, 0.04654546255905607, -1.595593536214295, 0.04802759532353877, 0.04654546255905989, -1.578273817417008, 0.048027595323545474, 0.05070712416556661, -4.752141172167114, 0.020634415709649308, 0.05070712416557239, -4.769460890107228, 0.02063441570965194, 0.09933341740715186, -4.752141172167082, 0.013696589875510135, 0.0993334174071426, -4.769460890107237, 0.013696589875516054, -0.0020808311658377463, -1.5955935362142954, 0.05496542139181509, -0.0020808311658319367, -1.5782738174170137, 0.05496542139180302, 0.07481704688315666, -4.760801030980532, 0.02199575803378841, 0.022435539524552402, -1.5869336769137423, 0.046666253158847176, 0.026190753442905456, -4.760801030980534, 0.08099725873707238, -0.026190753871564106, -1.5869336769137377, -0.01233524767878539, -0.06900257583905439, 7.491111093960726e-32, 0.0, -4.59161413743719e-34, -1.4467861806300903, 0.0, 0.0, 0.0, -0.336742274437105, 2.2077535370062148e-11, -1.3802868316523014e-10, -4.616443728725311e-10, -2.2077530107448718e-11, -4.600956226987058e-11, 4.616443750365558e-10, -7.233739999756904e-10, -1.380286831650527e-10, -5.131011057262873e-11, -7.67529063171094e-10, -4.6009562269825395e-11, -9.745988602211416e-10, -7.45451530936703e-10, -2.8077581178379265e-18, 1.061076698499321e-18, -7.454515309365919e-10, -9.201912173173139e-11, 70.0, 2.9905967385802413e-18, -2.807758117837927e-18, -5.129544851478061e-10, 2.9905967385802413e-18, -9.201912173162902e-11, -5.129544851478912e-10, -7.40777409064086e-10, 1.6283105115864232e-10, -7.614030995716158e-10, -7.407774090641392e-10, -2.5485017867232443e-10, -7.614030995717158e-10, -7.501256589017337e-10, -3.46869288821102e-10, -2.645058696524744e-10, -7.501256589018211e-10, 7.081192761539254e-11, -2.6450586965251353e-10, -1.4955771908113773e-09, -3.468692888215449e-10, -2.4844861640715255e-10, -1.495577190811238e-09, 7.081192761551972e-11, -2.4844861640723615e-10, 4.674130050061631e-12, 1.6283105115864566e-10, -7.774603564185531e-10, 4.6741300499762505e-12, -2.5485017867224957e-10, -7.774603564183797e-10, -1.1627392098524114e-09, -1.38028683165271e-10, -3.0935987615697837e-10, -3.2816385350132336e-10, -4.6009562269703974e-11, -7.165490954592455e-10, -4.1728767486683684e-10, -1.380286831652305e-10, -1.22950358071829e-09, 4.172876809075644e-10, -4.600956226975931e-11, 2.03594610940531e-10, 1.3574092374436555e-09, -1.089658663248439e-39, 0.0, 4.7881223566875475e-42, 2.0600292928299528e-08, 0.0, 0.0, 0.0, 5.034918858872433e-09, 6.86944643860882e-11, -3.207227837116707e-10, -9.876611180931556e-10, -6.869445229158212e-11, -1.0690759719657387e-10, 9.876611240992392e-10, -1.59135114725166e-09, -3.207227837112911e-10, -1.5159360880323555e-10, -1.7287400588499528e-09, -1.0690759719647167e-10, -2.1269158550781915e-09, -1.6600456017862722e-09, -6.126815733586519e-18, 2.9905967385802432e-18, -1.6600456017860245e-09, -2.1381518826576582e-10, 2.9905967385802413e-18, 70.0, -6.126815733586519e-18, -1.1392547313902714e-09, 6.813459184930777e-18, -2.1381518826554427e-10, -1.139254731390462e-09, -1.6473381038247256e-09, 3.473254235747417e-10, -1.6997108177507158e-09, -1.6473381038248528e-09, -5.611406245029651e-10, -1.6997108177509295e-09, -1.672753112953664e-09, -7.749557881186239e-10, -5.787986427356288e-10, -1.6727531129538601e-09, 1.3351023122189314e-10, -5.787986427357192e-10, -3.3327987169423765e-09, -7.749557881195926e-10, -5.604560899924463e-10, -3.332798716942064e-09, 1.3351023122218213e-10, -5.604560899926342e-10, 1.2707516177444602e-11, 3.473254235747438e-10, -1.7180533783486311e-09, 1.2707516177256987e-11, -5.61140624502802e-10, -1.7180533783482314e-09, -2.589200233397853e-09, -3.207227837117643e-10, -7.14072504156403e-10, -7.308909730322503e-10, -1.0690759719620378e-10, -1.5644369616157295e-09, -9.291546226680234e-10, -3.2072278371167333e-10, -2.7036916939427093e-09, 9.291546363836308e-10, -1.069075971963261e-10, 4.251822323635932e-10, 2.905521071640724e-09, -2.6499938749906984e-39, 0.0, 1.0291659932917128e-41, 4.43730648538776e-08, 0.0, 0.0, 0.0, 1.1031397927079818e-08, 1.9553993502714588e-11, 2.8026016481179447e-10, 6.887235837405058e-10, -1.9554004792751427e-11, 9.342005640245222e-11, -6.887235894720252e-10, 1.3898926989505174e-09, 2.802601648114671e-10, 2.5943645606950877e-10, 1.3507846971751249e-09, 9.342005640236577e-11, 1.6368836320684233e-09, 1.3703386972176513e-09, 3.887347406655667e-18, -2.8077581178379284e-18, 1.3703386972174424e-09, 1.86840108917078e-10, -2.807758117837927e-18, -6.126815733586519e-18, 70.0, 9.481600436907897e-10, -6.126815733586519e-18, 1.8684010891689237e-10, 9.481600436909487e-10, 1.4761321821516392e-09, -2.1167400833311064e-10, 1.3813640508834935e-09, 1.4761321821517422e-09, 3.9851412598806086e-10, 1.381364050883682e-09, 1.2645452220403137e-09, 5.853542175383611e-10, 5.14956034520724e-10, 1.2645452220404742e-09, -2.483389555932194e-11, 5.149560345208019e-10, 2.6348839219683023e-09, 5.853542175391774e-10, 4.3320400969011047e-10, 2.6348839219680418e-09, -2.4833895559563734e-11, 4.332040096902612e-10, 1.0579347024445604e-10, -2.1167400833311162e-10, 1.4631160819232941e-09, 1.0579347024461036e-10, 3.98514125987926e-10, 1.4631160819229564e-09, 1.973346543852781e-09, 2.802601648118716e-10, 6.759972686973866e-10, 7.673308524643279e-10, 9.342005640214138e-11, 1.2203228207956763e-09, 6.030078390245814e-10, 2.8026016481179876e-10, 2.1684828658383978e-09, -6.030078513702336e-10, 9.342005640224212e-11, -2.721627793241068e-10, -2.020846589587198e-09, 2.1655211602657342e-39, 0.0, -1.0074334445518133e-41, -3.066667172216792e-08, 0.0, 0.0, 0.0, -8.302766202206201e-09, -0.01170775546341294, 0.051496508532084935, 0.14933047821836085, 0.011707753420460128, 0.017165503248217896, -0.14933047923557374, 0.2405182888946582, 0.05149650853202552, -3.6591758779465464, 0.2639337969893522, 0.017165503248201913, -3.360514919838181, 0.25222604274938265, 9.481600436907897e-10, -5.129544851478063e-10, 0.25222604274934457, 0.03433100554818773, -5.129544851478061e-10, -1.1392547313902714e-09, 9.481600436907897e-10, 66.49015460102395, -1.1392547313902714e-09, 0.034331005548153805, -3.5098453989760205, 0.2464154094943407, -0.06038626579627092, -5.261839681984476, 0.2464154094943601, 0.09471727331261003, -5.261839681984443, 0.2580366780689421, 0.12904827505178929, -1.7578511163156005, 0.2580366780689717, -0.02605525959183619, -1.7578511163155857, 0.5102627212420714, 0.12904827505193853, -1.7519942824911083, 0.5102627212420238, -0.02605525959188109, -1.751994282491079, -0.005810636197801755, -0.060386265796271155, -5.267696514565599, -0.005810636197772695, 0.09471727331258466, -5.267696514565664, 0.3838151734637939, 0.051496508532099215, -5.431188302718776, 0