135
Lattice="13.37715033 -1.10855063 4.88585621 0.09619085 14.03493446 1.78412649 -4.68515467 -1.98625912 13.15262961" Properties=species:S:1:pos:R:3:forces:R:3 energy=-235.8178927868139 pbc="T T T"
Ba       1.67846226       1.78746559       3.65604231      -0.06908695       0.68348329       0.01521250
Zr       0.26990781       0.10018690       0.16191041      -1.50906386      -0.28049850      -0.57867324
S       -0.32567722      -0.08283853       2.45571122      -1.13751229      -0.63404362       1.20231096
S        8.13677192      -0.69007319      17.90008694       1.02067618       0.04301470      -0.52288771
S       -2.45651852      -0.99944629      14.04597658       1.39632148       0.22508731       0.09914497
Ba      -0.27650281       1.44320381       7.92545132       0.77315290      -0.19267051      -1.30896668
Zr      11.64887354      -1.70462641       9.48604800       0.52155546      -0.45273541       0.26179329
S        9.68017164      -1.98073183      10.99444324       1.06500761      -0.21272369       0.63045736
S       -1.13313734       1.72460700       5.20250869      -0.89585888       0.31229463      -0.35126758
S        0.25797284      -0.95626668       6.19250803      -0.99415799      -0.15782043      -0.98172568
Ba      -1.89797250       0.49199226      11.55530916       0.02251539       0.94210092       0.30552881
Zr      10.22211735      11.51825070      15.21462394      -0.54573614       1.11173914      -2.17387760
S       -3.52782659      12.35205599      12.65148060      -1.35038377       0.12328151       0.50619157
S       10.08714425       0.04014968      13.48950299      -0.06835721      -1.51412783      -0.09814811
S       -0.84489480      -1.36137542       8.99264989       0.18634235       0.03789824       0.53135152
Ba       1.92507320       6.28777407       4.05926756      -0.25220916       0.63044804      -0.58769961
Zr      13.30615811       3.48082458       5.51048263       0.26749722      -0.33007856       1.13965297
S       -0.55412760       3.55129035       2.82741091       0.53204038       0.47159248      -0.12891906
S       13.30420648       5.93282898       5.82175440       0.13617173      -0.46445554       0.71353388
S       -2.37161572       2.04490277      14.37824176      -0.61338621       0.65334216       0.35010826
Ba      -0.16775886       5.60678173       8.51699357       0.43075673       0.57008562      -0.48481417
Zr      -1.41772360       4.28513080       4.93549445      -0.74607193      -0.93420512       0.08536652
S       10.72523027       3.22879515      12.03043389       1.01975579      -0.21550280      -1.48079315
S       12.09181317       5.39130967       9.13643873       1.52313067       0.76794692      -0.03860567
S        0.84059143       4.19040629       5.91171893      -1.70912895       0.56469105      -0.35822146
Ba      -1.98915451       4.66763909      12.82447144       1.10341206       0.47792945       0.12903609
Zr      10.25078253       2.25229788      14.16033671      -0.61818570       1.64255673       1.05753559
S        9.07700101       1.87546571      16.33789054       0.66969876      -0.31400112      -0.48658855
S       -2.61967835       5.64037926      10.19331334      -0.67754866      -0.73858646      -0.22842322
S       -0.90194206       3.01310280      10.16500802       0.29277817       0.41157709       1.15599816
Ba       1.17115429      11.18527864       4.62310753       0.39233384      -0.04939223      -0.08641745
Zr      -4.49057345       7.41790867      14.34649451      -0.88526451       0.81254600      -0.28895663
S       12.30792174       8.44671816       8.20643618       0.29965196      -1.28164304       0.03675078
S        0.59428526      11.79918871       1.74746013       0.33578181      -0.16586415      -0.87628775
S        1.99224600       8.93507341       2.60753684       1.18369979      -0.71372396       0.94761105
Ba       0.48790500      10.15927536       9.07171070      -0.95180536       0.39229430      -0.36862167
Zr      11.83556385       7.46400222      10.42397042      -0.21409074       0.84484072      -0.48664286
S       10.95655267       6.39567416      12.35342859      -0.25892417      -0.08152336       0.57348695
S       11.77726135       9.87520263      10.94974537      -0.06909876      -0.00297171       0.51760923
S        0.66515886       8.25149891       6.43440909       1.38622766      -0.48613922       0.21953379
Ba      -1.63561556      10.33342517      12.85584032       0.78016890      -1.43248724       0.42413079
Zr      -2.87452319       8.00686871       9.79464266       0.02146042      -0.39872802       0.00724233
S       -3.34322581       7.82337914      12.22141236      -0.92546815       0.25071408       0.28094343
S       -2.57979554      10.42989949       9.61118203       0.07004186      -0.89959227       0.02786173
S       -0.51668500       7.77343911      10.32645238      -1.30543020       1.05844099      -0.62744433
Ba       5.74171981       1.28898039       5.06935656       0.36148517      -0.07302751       0.26974755
Zr      -0.44408900      -2.32911816      14.69213717       0.28393126       0.76990130       0.13852168
S        3.40899875      -0.68331565       3.80256339      -0.40713127      -0.28844762       0.23461363
S        4.80069628       1.77617257       2.34581358       0.69421834       1.74248642       0.87430673
S        1.92595491      11.13996350      17.15332390       0.96486871       0.58380000       0.67380727
Ba       4.39836541       0.27911658       9.44980589       1.18955062       1.00155591      -0.46539933
Zr       2.64821253      -0.95471142       6.18309366       0.34273648       0.92810597      -1.37846836
S        2.57580274      12.05475515      10.03786796       0.73296670      -0.70307576       1.43071557
S        2.54965316       1.41965899       6.48549690       0.32083807      -0.12406310       0.30138060
S        5.23738196      12.59150920       8.40354194      -0.49415248       0.75706938       0.12898921
Ba       2.82084210       0.17034190      14.02974905       0.24934135      -0.08367285       0.12248145
Zr       1.26507117      12.34038542      12.04447615       0.00648035      -0.13379499       1.27712504
S        0.22085527      -1.42770546      12.49787239       0.26391881      -0.65392770      -0.77452145
S        1.59886579       0.57446648       9.92343165      -0.15650606       2.02039161       0.30407795
S        3.34744604      -1.48227918      11.63187081       0.50874008      -1.13181873      -0.69032722
Ba       6.09345743       6.28645186       5.01062369      -0.29393098       1.29511830       0.18020521
Zr      -0.03131349       2.15161521      15.22200891      -0.43060850       0.21397081       0.01254115
S        4.08829647       4.14470779       4.47756038      -0.65370666      -0.73022324       0.16238057
S        0.07647600       4.58239561      15.13517744      -0.88827679       1.42512635       0.48365956
S        2.28840082       2.36114090      15.86639441      -0.47050581      -0.10016002      -0.40419418
Ba       4.51545189       5.16808705       9.97183696      -0.12319891       0.34355955       0.21930366
Zr       2.96553434       3.86187148       6.71479158       2.11302115      -1.27969989       0.46805246
S        2.13626060       3.95053319       8.96856347      -0.71144185      -0.92668524       0.56916379
S        3.89016709       5.98941180       7.07257385      -0.01086613       1.87280930      -0.04260308
S        4.97516027       2.73343853       7.77873351      -0.09561184       0.57152505      -0.18931287
Ba       2.99966384       4.72311025      14.32922396       0.46613055      -0.26389574      -0.22993710
Zr       1.45649074       2.80956429      11.11766602       1.02090977      -0.30273054      -0.58110123
S        0.53074785       1.56649586      12.89146821      -0.43930142       0.63776831       0.19849670
S        1.15032343       5.02264515      12.00791706      -0.16053802      -0.30865549      -0.19919432
S        3.80595271       2.46539331      11.87043988      -1.57354628      -0.21663017      -0.17898664
Ba       5.69069396      10.98329928       5.88766531       0.10297799       0.13341141      -0.06465655
Zr      -0.23544575       7.17873770      15.65637854      -0.53553481      -0.77834181      -0.37927875
S        4.10551850       8.66333930       4.98825682      -0.54030834      -0.50351742      -0.16093586
S       -0.79932566       9.60103732      15.71584439       0.12249513      -2.60703745      -0.41247077
S        2.14087938       7.02567003      16.29749385      -0.99116855       0.52751504      -0.16632912
Ba       4.42712268      10.16059930      11.30050769      -0.13663490      -1.26930501      -1.35582504
Zr       3.06763004       8.35530064       7.24374909       0.04266790      -0.05967512       0.67296705
S        2.37413819       7.63416022       9.61383273       0.77658209       0.08573640      -0.94555331
S        2.52998424      10.88215851       7.14739006       0.75427552      -2.69423129      -0.69864526
S        5.02257041       9.32856743       8.34701858       0.49056924      -0.33023091       0.38816670
Ba       2.70175498       9.73226064      14.74051581      -0.58889976       0.28105303       0.20042539
Zr       1.21382069       7.41737482      11.85181424       0.99832354      -0.07206766      -0.26994002
S       -0.70679074       7.43744807      13.25219438       0.42056484      -0.25686365       1.65553036
S        1.29385027       9.88403031      12.15198026      -0.00245923       0.77337927      -0.27615148
S        3.38820579       7.53421208      12.82437588       0.65840763      -0.51444992       0.41541573
Ba      10.56128977       1.11152547       6.41124740      -1.11968753      -1.09898016       1.11065726
Zr       4.49577013      11.29406272      18.11622563       0.17212755       0.32158918      -0.58503992
S        8.33806524      12.30462476       6.88518774      -1.35764557      -0.53587385       1.13740164
S        8.87300984       1.52031358       4.02866094      -0.63087857      -0.06394993      -0.28628530
S        6.77032916      10.94811230      19.01941497      -1.19809977      -0.52646116      -0.92194013
Ba       9.23568106       0.84510225      10.60304514      -1.27506842       0.17156811      -0.27540421
Zr       7.49578570      12.67103357       9.16098102      -0.17758403      -0.17988858       0.24453222
S        6.79597668      12.23513549      11.54731256      -0.87541173      -0.39746908       0.86908399
S        7.63766363       0.92993112       7.85781330       0.08623246       0.85406165      -0.71010952
S        9.74396111      -1.35811894       8.09719982       1.14279279       1.06714864      -0.26789613
Ba       7.36817064      -0.39872601      15.08362724       0.58341996       0.06926267       1.20819143
Zr       5.80937208      11.96343713      13.79485824       1.15041729       0.35763240       0.38717655
S        4.96164742      -1.62392061      14.29172637      -0.18693310      -0.77002456      -0.29945174
S        6.68304599       0.15473057      12.36914035       0.12510931       0.56202941      -1.18187050
S        7.83217095      11.24422345      15.09589986       0.36654906       0.65686520      -0.55411023
Ba      10.15371830       6.19222334       7.14317627      -0.44288449       1.04556852      -0.37344419
Zr       8.94928999       4.00915981       4.12427838       3.37027960      -0.46507241      -3.76533365
S        7.41427184       3.84956214       5.65445588      -2.98718211      -1.32583129       4.12803088
S        8.98929798       6.39316125       4.22252972       0.12055885       0.68261705       0.97099968
S       10.89018208       3.91735262       5.52710179       0.37718739      -0.06975920      -0.20114920
Ba       8.43442272       5.19978345      11.30118383       0.01441536      -0.20226483      -0.05630742
Zr       7.32463438       3.40617542       8.08671045      -0.21606786       0.24032900      -0.29429034
S        6.72178705       2.71878319      10.37093912       0.65677333       0.56825270      -0.91667858
S        6.92687945       5.92034212       8.17262897       0.28920294      -1.14861248      -0.03538299
S        9.67116505       3.60106555       8.75030293      -0.18855130      -0.77053709       0.11100443
Ba       7.34830455       4.28383756      16.33360534      -0.59292857       0.72185864      -0.73369284
Zr       6.15185465       2.53974790      12.65736149      -1.47019979      -2.26241506       1.10078351
S        5.52642739       1.97763707      15.05340203      -0.56701486       0.26914327      -0.08297180
S        5.63901934       4.85905406      12.69034289      -0.21061656       0.57722454       0.04247308
S        8.11303704       3.24967215      13.62833470       0.98529227       0.66054837       0.30689619
Ba      10.68004553      10.64607768       7.68803796      -0.46247595       0.53107615       0.50490832
Zr       4.24455034       6.99475109      17.50818945       1.02995161      -0.29999986      -0.00478183
S        7.95340202       8.71152657       6.55902104       0.24729923       0.24119509      -0.70715633
S        4.60954575       9.23700736      16.81707630       0.68853676      -0.50822645       0.71751079
S        6.64829665       6.96735709      18.36955233      -0.83663665      -1.01629555       0.21495933
Ba       8.74084453       9.34658264      12.15427220       0.22560878       0.28255559       0.83535885
Zr       7.23936307       8.28539826       8.78761371      -0.60619141       0.24262620       0.46073878
S        6.22717857       7.52994775      11.00095137       0.50085997       0.96089052      -1.04561434
S        8.15306964      10.39444641       9.56967981      -0.15094434      -1.45047197      -0.64939699
S        9.40711263       7.51781693       9.79113808       0.04312700       0.10588219      -0.44509863
Ba       7.77508561       8.85506630      16.56309966      -0.34117251       0.23042125       0.50858439
Zr       5.83030182       7.14773933      13.26981173      -0.70379409       0.76146203       1.66433911
S        5.20250124       6.20560614      15.45388826       0.83974237       0.77912893      -0.77734928
S        5.67190531       9.50715403      14.11189577       0.08087647       0.06521699      -0.99680841
S        8.12451529       7.05291050      14.18898728      -0.31347334      -0.56646594      -0.54871934
135
Lattice="15.08644329 -0.9842101 -2.72802574 0.95382578 15.38040051 0.6362877 2.76330766 -0.85625983 15.13552519" Properties=species:S:1:pos:R:3:forces:R:3 energy=-263.2982360876631 pbc="T T T"
Ba       3.01801282       2.19789302       2.12771611       0.00176875      -0.07887383      -0.39205872
Zr      14.96350818      -0.78974830      -2.60695689       0.61853261      -0.78133064      -0.79460821
S       15.46534506      -1.01838500      -0.11246292      -0.14281202      -0.15117292      -0.94500290
S       15.24605598       1.57766704      -2.53038777       0.08104741       0.76424782      -0.49951933
S        3.51330651      15.13808578       0.57812096       0.15747909      -0.27800243      -0.56441055
Ba       4.01257465       2.14273339       7.23604498      -0.19028013      -0.18723669       0.00706852
Zr       1.98329802      15.03814751       5.62432593      -0.01064874       0.55798603       0.60379741
S        2.67612130      14.72063481       8.15865813      -0.13059038      -0.18363593      -0.14833408
S       15.92560501       1.16881581       2.72061021       0.25647247       0.57206225      -0.19401358
S        3.42125066      -0.16273373       4.25523620       0.70304399      -0.46491845       0.39615486
Ba       4.86643468       2.09581936      12.46742726      -0.17253414      -0.39669978      -0.40219012
Zr       1.88803402      -0.50524740      10.00573077       0.18455003       0.80671301       0.47540613
S       18.26555882      13.50183679      10.45160087       0.14801412       0.37446008       0.71981361
S       17.03165417       1.06148588       7.21462160       0.05287291      -0.04313981       0.16385833
S        4.45213045      -0.31849604       9.91055028       0.20271749      -0.62441446       0.14124401
Ba       3.71292785       7.05470397       2.47205997      -0.05865141       0.02028011      -0.08621060
Zr       3.09782384       4.42523529      15.33753347      -0.34245748       0.34487578       0.32783410
S       15.75493444       3.72240270       0.02464853      -0.01445940       0.28989417      -0.17203017
S        3.66842898       6.85855458      15.29165102      -0.01087538      -0.17657401       0.48177465
S        2.85916291       4.75816615      -0.10917917      -0.42123764       0.14177254      -0.18830722
Ba       4.22467308       7.21183145       7.48226911       0.27604177      -0.11691313      -0.01084873
Zr      16.23913698       3.83723420       2.50683108       0.54265664      -0.65262886      -0.00414892
S        2.14463757       4.75762839       7.54590044       0.19663290      -0.16359763       0.51915639
S        1.45931761       7.29234312       5.17851838       0.66793695       0.72038788      -0.16770371
S        3.94333198       4.01615880       4.48390177      -0.66248835       0.34609839       0.31545851
Ba       5.08678990       7.01361161      12.44989176       0.31382653      -0.14944310       0.01380845
Zr      17.20616466       3.68047868       7.55830217      -0.10051033      -0.71791773      -0.35734342
S       17.41239426       3.60307932      10.14040255       0.32005817      -0.41785482      -0.09572188
S       17.36245950       6.11328131       7.45593871      -0.41212903       0.54996969       0.25670123
S        4.68773323       4.53111910      10.19129708       0.69260068      -0.32855322      -0.29315474
Ba       3.86952101      12.38960912       2.52631236       0.17234315       0.14309548      -0.05038049
Zr       3.38985872       9.53820791      15.38249854      -0.20023101       0.00410186       0.78477424
S        1.60429639      10.03284138       2.83767029      -0.23363966       0.23809098       0.09553207
S       15.49589151      11.97779028      -2.08124794       0.17631538      -0.87804720      -0.19519548
S        5.92647863       9.71668004      14.81038390      -0.66970753       0.12610187       0.13197073
Ba       4.79128890      12.16052337       7.44751323      -0.26469113      -0.15564686       0.05873733
Zr       1.75620330       9.89277383       5.30391262      -0.03521533      -0.03724160      -0.20182159
S        2.23584114       9.83826444       7.87418131      -0.15114471       0.00134393       0.14388540
S        1.79648922      12.56733207       5.53085786       0.36610943      -1.05220245      -0.20469484
S        4.35610189       9.76583155       5.19956516      -1.06677189      -0.04266803       0.24011163
Ba       5.25066423      12.23856252      12.54076619       0.39125500      -0.10119589       0.25694986
Zr       2.47052758       9.67139863      10.32616020      -0.53145025       0.19525890       0.14938651
S       17.72136922       8.47634449      10.38036801      -0.08562329       0.09090504      -0.53369897
S        2.71551695      12.16289776      10.68281786      -0.13727986       0.21934731      -0.29439826
S        4.86316447       9.20410506      10.23558338       1.27367375       0.45570083      -0.31425902
Ba       8.03352798       1.87515158       0.89433044      -0.16338917       0.30279407       0.45020402
Zr       8.74373364      14.11752703      14.80784557      -0.62004825       0.46976370       1.12545797
S        5.76245721      -0.44751215       1.69717069       0.19327884       0.05547698       0.04249400
S        5.17441406       2.21665429      -0.65491289      -0.27202647      -0.78197793      -0.33264021
S       10.39814668      -1.15380082      13.74298821      -0.73304303      -0.14025596      -0.48019755
Ba       9.11687644       2.03139727       6.52267136       0.09812530      -0.38992630      -0.33527506
Zr       6.96966057      14.71656116       4.80697171       0.25071447       0.28280092      -1.13873587
S        7.00413271      14.51285508       7.50996075       0.05549347      -0.13716445      -1.03248061
S        6.75203183       1.69490599       4.46934317      -0.42740424      -0.09693212      -0.09492888
S        9.50658588      13.98487568       4.59691412       0.23817939       0.33305095       0.13337000
Ba       9.87943848       1.41018545      11.10406185       0.10174467      -0.03210798       0.43414880
Zr       7.83820440      14.39030943       9.74511821      -0.64303545       0.42140287       0.92579418
S        8.23210821      13.82703101      12.47897837       0.09988636       0.23805627      -0.46041856
S        7.11205303       1.62464491       9.43124977       0.14830032      -0.20278444      -0.36005333
S       10.33258146      14.26064146       9.44483978      -0.59657291      -0.00015160      -0.07973921
Ba       8.01661613       7.07016795       1.12345851       0.64143156       0.08810439       0.08790503
Zr       8.05196187       3.91148102      14.36904352       0.60525396       0.29397727       0.85709691
S        6.02574031       4.77716168       1.79067904      -0.24207594      -0.37255951      -0.45771329
S        8.08080967       6.47578652      14.35785828       0.01891013      -0.56519672       0.34581993
S       10.62193035       3.45594722      13.83326867      -0.19012712       0.36023348       0.02322953
Ba       9.21367330       6.76147058       6.09423299       0.10715656       0.09575652       0.24527416
Zr       6.37743637       4.31070337       4.40884257      -0.42134524       0.32656217      -0.45722951
S        6.72998215       4.39294581       6.92921980      -0.15133923      -0.42977195       0.27032888
S        6.42027419       6.88437678       4.50756845      -0.14773845       0.31252511       0.23484007
S        8.80357571       4.18758059       3.87838534       1.21371932       0.20346879      -0.10544153
Ba      10.47610451       5.93326550      11.43547747      -0.50232065       0.68878473       0.09515920
Zr       7.18816163       4.12898945       9.45297951      -0.48511945       1.24213742      -0.23661995
S        7.68518210       3.88060624      11.89399990       0.17065137       0.07020731       0.00798928
S        7.56669060       6.76823186       9.39480490      -0.15862380      -0.09735425       0.21070940
S        9.73882741       4.05293748       8.84040435      -0.55456067       0.21896738       0.52641944
Ba       8.98232260      11.96851825       1.80748033      -0.07393715       0.08068528       0.08153263
Zr       8.36607545       9.16965806      14.63022978       0.24667380      -0.76869439       0.18156210
S        6.03839620       9.39692490       1.97647069      -0.51497248       0.19053952       0.12249710
S        6.10570455      12.40495771       0.03060463       0.30878852       0.45937504      -0.17164152
S        8.16799702       9.66803286      -0.88619233       0.17360726       0.50678316      -0.07815000
Ba       9.59232234      11.78289373       6.97984982       0.42379929      -0.10778989      -0.12746112
Zr       6.73501671       9.56354293       4.48612106       0.26611509      -0.29076058      -0.05296740
S        7.50497190       9.41875811       7.05118268      -0.41161120       0.10237298       0.23679585
S        6.83843006      12.07007853       4.44003141      -0.50615878       0.28269650       0.40339457
S        9.07472156       9.30010430       3.81372161       0.51331682       0.01548131       0.11457143
Ba      10.74134595      11.47958613      12.19938691       0.02455834      -0.16578168      -0.22605952
Zr       7.60685187       9.39038017       9.70272703       0.52214499      -1.62931708      -0.09052338
S        8.05815279       8.90884941      12.19995343      -0.13713529       0.77224032      -0.94420544
S        7.44788720      11.84882217       9.69505310      -0.19601639       0.29967652       0.08587245
S       10.21868259       9.39332165       9.50225290      -0.65435264       0.07962989       0.02881494
Ba      13.24120926       1.02405246       0.53720278      -0.14345233       0.72802861       0.13486645
Zr      10.02818560      -0.54429796      -1.74762230       0.35160731      -0.24173368      -0.12366609
S       10.14727948      -0.64094586       0.88641085       0.40094036      -0.02154278      -0.63814821
S       10.36875864       2.02112073      -1.66855712       0.08196737      -0.69849253       0.13780512
S       15.27660795      -1.37247139      12.82874496      -0.17817244      -0.36565093       0.40743260
Ba      14.11903783       1.79011210       5.26378797      -0.09041864      -0.87290013       0.07868007
Zr      11.89574912      14.24027950       3.85845943       0.22574625       0.41629106       0.74179953
S       12.67141014      14.22689831       6.37129244      -0.40356941       0.03933828       0.02650803
S       11.55041639       1.55944849       3.31911471      -0.39529781       0.26840274      -0.25331930
S       14.52171412      14.04869849       3.23203093      -0.65488163      -0.15580893       0.32588341
Ba      14.47143216       1.12456202      10.36375717       0.78391785      -0.15267940       0.03093877
Zr      12.82857472      14.08999457       8.97578821       0.47161336       0.07241025      -0.78973932
S       12.53597748      -1.32186571      10.78174879      -0.33909598      -0.16938500       0.66873818
S       11.89934295       1.36728081       8.61448391      -0.04067257      -0.67947681      -0.49109097
S       14.39167619      -1.33374281       7.86267717       0.65056861      -0.10108625      -0.22660406
Ba      13.53217643       6.74194640       0.77119758      -0.02076630      -0.04249555      -0.07160138
Zr      10.42710151       4.47877835      -1.52279412       0.04603734       0.79615348       0.10471957
S       10.96514257       4.64999112       0.96276567      -0.12805260      -0.31365113      -0.07581459
S       12.82553972       6.14032002      13.48376557       0.46439426       0.06998045       0.04498591
S       15.69758485       3.88997928      13.08523183      -0.03683783      -0.15508088       0.19144714
Ba      14.10059024       6.81228371       5.74550389       0.23533827      -0.40464201       0.11628892
Zr      11.34394646       4.14303648       3.38776289      -0.32420484      -0.41934008       0.31564211
S       11.61881799       3.89791866       5.98105339       0.10285969       0.32713973       0.04714012
S       11.66191528       6.73517641       3.70617992      -0.07789200      -0.31852116       0.05471766
S       13.99552912       4.19247863       3.31441025      -0.71181125       0.23218799      -0.13198520
Ba      15.18192222       6.12770206      10.87151566       0.06338534       0.21538995       0.06788016
Zr      12.16523448       3.85690098       8.50791716       0.73096065       0.58554044      -0.90934230
S       12.67424822       3.66065739      10.92768850       0.40545988       0.05286649       0.45383599
S       12.64355993       6.42682321       8.75434469      -0.42846080      -0.00743607      -0.09506206
S       14.71602749       3.62928733       7.54002251      -0.53586859       0.46932508       0.88218731
Ba      14.25374111      11.79215633       0.83991555      -0.25300912      -0.28928971       0.17206403
Zr      10.72384188       9.62332683      -1.25419169       0.03735488      -0.55926696       0.24501986
S       11.13425855       9.20334082       1.17911260       0.04967108       0.04994453      -0.21397512
S       10.87854345      12.12709038      -1.18083715       0.01513782       0.47402744       0.06806928
S       13.27284142       9.03126201      -1.49543801       0.37826684       0.10480816      -0.21009807
Ba      14.90451536      12.05422163       5.82049864      -0.11967385      -0.28054722       0.00272172
Zr      11.81568451       9.26741207       3.65391218      -0.48296712      -0.02963242       0.19765951
S       11.87766157       9.30084847       6.16276204       0.07774948      -0.08474751       0.13486310
S       12.03983612      11.77412168       3.47062401      -0.12876969       0.00856356      -0.05568367
S       14.33716348       9.07617447       3.11429198      -0.12133547      -0.08984336      -0.02792505
Ba      15.69903251      11.49505225      10.66151599       0.02326767       0.00818841       0.13334637
Zr      12.65174963       9.06869577       8.95141886      -0.60835274      -0.26288198      -0.15569097
S       13.30709509       8.85652112      11.32436690       0.15383911       0.29739113      -0.28475040
S       12.73690753      11.63578872       8.97841778       0.09054458      -0.15148228      -0.02963887
S       14.91610367       8.90086757       8.02745316       1.01351908       0.28382848      -0.18327368
240
Lattice="14.13449869 -0.00756383 -0.00046609 0.00669252 19.8246181 -0.00562345 0.00646298 0.00170861 20.76126322" Properties=species:S:1:pos:R:3:forces:R:3 energy=-486.54812392871827 pbc="T T T"
Ba       6.55447097       2.52185919       3.48271955       0.67751870      -0.35291105       0.05478284
Ba       3.90608768       7.30248711       0.04536154      -0.07039932       0.23149064       0.02840838
Ba       0.55279472       7.55749955       3.36021575      -0.57298387      -0.47173836       0.06597093
Ba       3.11690791       2.46742752       6.85849427       0.17323465      -0.01701214       0.11127766
S        0.09274735       2.51526695       0.34122467      -0.12220698      -0.28245446       0.17596143
S        3.52013847       7.43400228      17.70186345      -0.10931562       0.05641598       0.05378441
S        7.03322138       7.41634101       6.41613558       0.10994884      -0.10181595      -0.04141050
S        3.55827574       2.48712960       2.89575553      -0.24892325      -0.62824302      -0.00371034
S        1.42645428       0.37838689       4.88264322       0.30475076      -0.02122493      -0.51556763
S        2.11532173       9.50673853       1.37946450      -0.01593050       0.24001839      -0.14334508