# Thermal properties / unit cell (natom)

unit:
  temperature:   K
  free_energy:   kJ/mol
  entropy:       J/K/mol
  heat_capacity: J/K/mol

natom: 5    
cutoff_frequency: 0.00000
num_modes: 120000
num_integrated_modes: 113440

zero_point_energy:      13.4591932

thermal_properties:
- temperature:         0.0000000
  free_energy:        13.4591932
  entropy:             0.0000000
  heat_capacity:       0.0000000
  energy:             13.4591932

- temperature:        10.0000000
  free_energy:        13.4561808
  entropy:             1.3924540
  heat_capacity:       4.7431464
  energy:             13.4701053

- temperature:        20.0000000
  free_energy:        13.4066051
  entropy:             9.3952573
  heat_capacity:      20.1076440
  energy:             13.5945102

- temperature:        30.0000000
  free_energy:        13.2600305
  entropy:            20.0597942
  heat_capacity:      32.8343766
  energy:             13.8618243

- temperature:        40.0000000
  free_energy:        13.0047994
  entropy:            30.9555443
  heat_capacity:      43.0786431
  energy:             14.2430212

- temperature:        50.0000000
  free_energy:        12.6420787
  entropy:            41.5140968
  heat_capacity:      51.6266021
  energy:             14.7177835

- temperature:        60.0000000
  free_energy:        12.1761620
  entropy:            51.5827680
  heat_capacity:      58.8451314
  energy:             15.2711280

- temperature:        70.0000000
  free_energy:        11.6121706
  entropy:            61.1287106
  heat_capacity:      65.0101860
  energy:             15.8911803

- temperature:        80.0000000
  free_energy:        10.9552847
  entropy:            70.1660970
  heat_capacity:      70.3453989
  energy:             16.5685725

- temperature:        90.0000000
  free_energy:        10.2104370
  entropy:            78.7270961
  heat_capacity:      75.0151383
  energy:             17.2958756

- temperature:       100.0000000
  free_energy:         9.3822085
  entropy:            86.8483451
  heat_capacity:      79.1340907
  energy:             18.0670430

- temperature:       110.0000000
  free_energy:         8.4748175
  entropy:            94.5652450
  heat_capacity:      82.7835072
  energy:             18.8769945

- temperature:       120.0000000
  free_energy:         7.4921434
  entropy:           101.9100798
  heat_capacity:      86.0245031
  energy:             19.7213530

- temperature:       130.0000000
  free_energy:         6.4377595
  entropy:           108.9117600
  heat_capacity:      88.9063741
  energy:             20.5962883

- temperature:       140.0000000
  free_energy:         5.3149656
  entropy:           115.5961298
  heat_capacity:      91.4710762
  energy:             21.4984238

- temperature:       150.0000000
  free_energy:         4.1268170
  entropy:           121.9863917
  heat_capacity:      93.7554273
  energy:             22.4247757

- temperature:       160.0000000
  free_energy:         2.8761481
  entropy:           128.1034950
  heat_capacity:      95.7921479
  energy:             23.3727073

- temperature:       170.0000000
  free_energy:         1.5655940
  entropy:           133.9664513
  heat_capacity:      97.6103839
  energy:             24.3398908

- temperature:       180.0000000
  free_energy:         0.1976083
  entropy:           139.5925835
  heat_capacity:      99.2360331
  energy:             25.3242734

- temperature:       190.0000000
  free_energy:        -1.2255211
  entropy:           144.9977226
  heat_capacity:     100.6920124
  energy:             26.3240462

- temperature:       200.0000000
  free_energy:        -2.7016580
  entropy:           150.1963679
  heat_capacity:     101.9985167
  energy:             27.3376156

- temperature:       210.0000000
  free_energy:        -4.2288046
  entropy:           155.2018202
  heat_capacity:     103.1732803
  energy:             28.3635776

- temperature:       220.0000000
  free_energy:        -5.8050912
  entropy:           160.0262968
  heat_capacity:     104.2318348
  energy:             29.4006941

- temperature:       230.0000000
  free_energy:        -7.4287649
  entropy:           164.6810316
  heat_capacity:     105.1877589
  energy:             30.4478724

- temperature:       240.0000000
  free_energy:        -9.0981806
  entropy:           169.1763644
  heat_capacity:     106.0529119
  energy:             31.5041469

- temperature:       250.0000000
  free_energy:       -10.8117927
  entropy:           173.5218215
  heat_capacity:     106.8376480
  energy:             32.5686627

- temperature:       260.0000000
  free_energy:       -12.5681468
  entropy:           177.7261878
  heat_capacity:     107.5510093
  energy:             33.6406620

- temperature:       270.0000000
  free_energy:       -14.3658732
  entropy:           181.7975728
  heat_capacity:     108.2008976
  energy:             34.7194714

- temperature:       280.0000000
  free_energy:       -16.2036800
  entropy:           185.7434699
  heat_capacity:     108.7942254
  energy:             35.8044915

- temperature:       290.0000000
  free_energy:       -18.0803475
  entropy:           189.5708109
  heat_capacity:     109.3370472
  energy:             36.8951877

- temperature:       300.0000000
  free_energy:       -19.9947225
  entropy:           193.2860147
  heat_capacity:     109.8346748
  energy:             37.9910819

- temperature:       310.0000000
  free_energy:       -21.9457139
  entropy:           196.8950323
  heat_capacity:     110.2917758
  energy:             39.0917461

- temperature:       320.0000000
  free_energy:       -23.9322876
  entropy:           200.4033867
  heat_capacity:     110.7124592
  energy:             40.1967961

- temperature:       330.0000000
  free_energy:       -25.9534632
  entropy:           203.8162099
  heat_capacity:     111.1003495
  energy:             41.3058861

- temperature:       340.0000000
  free_energy:       -28.0083094
  entropy:           207.1382760
  heat_capacity:     111.4586497
  energy:             42.4187045

- temperature:       350.0000000
  free_energy:       -30.0959410
  entropy:           210.3740313
  heat_capacity:     111.7901958
  energy:             43.5349699

- temperature:       360.0000000
  free_energy:       -32.2155161
  entropy:           213.5276216
  heat_capacity:     112.0975045
  energy:             44.6544276

- temperature:       370.0000000
  free_energy:       -34.3662325
  entropy:           216.6029168
  heat_capacity:     112.3828131
  energy:             45.7768467

- temperature:       380.0000000
  free_energy:       -36.5473256
  entropy:           219.6035337
  heat_capacity:     112.6481147
  energy:             46.9020172

- temperature:       390.0000000
  free_energy:       -38.7580656
  entropy:           222.5328560
  heat_capacity:     112.8951884
  energy:             48.0297483

- temperature:       400.0000000
  free_energy:       -40.9977556
  entropy:           225.3940530
  heat_capacity:     113.1256252
  energy:             49.1598656

- temperature:       410.0000000
  free_energy:       -43.2657295
  entropy:           228.1900964
  heat_capacity:     113.3408509
  energy:             50.2922101

- temperature:       420.0000000
  free_energy:       -45.5613497
  entropy:           230.9237758
  heat_capacity:     113.5421457
  energy:             51.4266362

- temperature:       430.0000000
  free_energy:       -47.8840059
  entropy:           233.5977122
  heat_capacity:     113.7306606
  energy:             52.5630104

- temperature:       440.0000000
  free_energy:       -50.2331130
  entropy:           236.2143711
  heat_capacity:     113.9074333
  energy:             53.7012102

- temperature:       450.0000000
  free_energy:       -52.6081101
  entropy:           238.7760737
  heat_capacity:     114.0734003
  energy:             54.8411231

- temperature:       460.0000000
  free_energy:       -55.0084586
  entropy:           241.2850080
  heat_capacity:     114.2294082
  energy:             55.9826451

- temperature:       470.0000000
  free_energy:       -57.4336413
  entropy:           243.7432380
  heat_capacity:     114.3762243
  energy:             57.1256806

- temperature:       480.0000000
  free_energy:       -59.8831609
  entropy:           246.1527127
  heat_capacity:     114.5145444
  energy:             58.2701412

- temperature:       490.0000000
  free_energy:       -62.3565392
  entropy:           248.5152743
  heat_capacity:     114.6450011
  energy:             59.4159453

- temperature:       500.0000000
  free_energy:       -64.8533158
  entropy:           250.8326655
  heat_capacity:     114.7681700
  energy:             60.5630170

- temperature:       510.0000000
  free_energy:       -67.3730474
  entropy:           253.1065364
  heat_capacity:     114.8845759
  energy:             61.7112861

- temperature:       520.0000000
  free_energy:       -69.9153067
  entropy:           255.3384504
  heat_capacity:     114.9946979
  energy:             62.8606875

- temperature:       530.0000000
  free_energy:       -72.4796815
  entropy:           257.5298908
  heat_capacity:     115.0989742
  energy:             64.0111606

- temperature:       540.0000000
  free_energy:       -75.0657743
  entropy:           259.6822651
  heat_capacity:     115.1978056
  energy:             65.1626489

- temperature:       550.0000000
  free_energy:       -77.6732011
  entropy:           261.7969107
  heat_capacity:     115.2915600
  energy:             66.3150998

- temperature:       560.0000000
  free_energy:       -80.3015910
  entropy:           263.8750987
  heat_capacity:     115.3805750
  energy:             67.4684643

- temperature:       570.0000000
  free_energy:       -82.9505856
  entropy:           265.9180388
  heat_capacity:     115.4651608
  energy:             68.6226965

- temperature:       580.0000000
  free_energy:       -85.6198381
  entropy:           267.9268824
  heat_capacity:     115.5456033
  energy:             69.7777537

- temperature:       590.0000000
  free_energy:       -88.3090132
  entropy:           269.9027269
  heat_capacity:     115.6221656
  energy:             70.9335957

- temperature:       600.0000000
  free_energy:       -91.0177861
  entropy:           271.8466184
  heat_capacity:     115.6950906
  energy:             72.0901849

- temperature:       610.0000000
  free_energy:       -93.7458424
  entropy:           273.7595549
  heat_capacity:     115.7646028
  energy:             73.2474861

- temperature:       620.0000000
  free_energy:       -96.4928772
  entropy:           275.6424895
  heat_capacity:     115.8309098
  energy:             74.4054663

- temperature:       630.0000000
  free_energy:       -99.2585952
  entropy:           277.4963325
  heat_capacity:     115.8942036
  energy:             75.5640943

- temperature:       640.0000000
  free_energy:      -102.0427098
  entropy:           279.3219542
  heat_capacity:     115.9546624
  energy:             76.7233409

- temperature:       650.0000000
  free_energy:      -104.8449430
  entropy:           281.1201871
  heat_capacity:     116.0124515
  energy:             77.8831786

- temperature:       660.0000000
  free_energy:      -107.6650249
  entropy:           282.8918280
  heat_capacity:     116.0677244
  energy:             79.0435815

- temperature:       670.0000000
  free_energy:      -110.5026935
  entropy:           284.6376398
  heat_capacity:     116.1206239
  energy:             80.2045252

- temperature:       680.0000000
  free_energy:      -113.3576941
  entropy:           286.3583538
  heat_capacity:     116.1712827
  energy:             81.3659865

- temperature:       690.0000000
  free_energy:      -116.2297792
  entropy:           288.0546711
  heat_capacity:     116.2198246
  energy:             82.5279438

- temperature:       700.0000000
  free_energy:      -119.1187084
  entropy:           289.7272640
  heat_capacity:     116.2663651
  energy:             83.6903764

- temperature:       710.0000000
  free_energy:      -122.0242476
  entropy:           291.3767780
  heat_capacity:     116.3110117
  energy:             84.8532648

- temperature:       720.0000000
  free_energy:      -124.9461691
  entropy:           293.0038330
  heat_capacity:     116.3538653
  energy:             86.0165906

- temperature:       730.0000000
  free_energy:      -127.8842514
  entropy:           294.6090244
  heat_capacity:     116.3950197
  energy:             87.1803364

- temperature:       740.0000000
  free_energy:      -130.8382786
  entropy:           296.1929247
  heat_capacity:     116.4345630
  energy:             88.3444856

- temperature:       750.0000000
  free_energy:      -133.8080407
  entropy:           297.7560844
  heat_capacity:     116.4725777
  energy:             89.5090226

- temperature:       760.0000000
  free_energy:      -136.7933329
  entropy:           299.2990333
  heat_capacity:     116.5091410
  energy:             90.6739324

- temperature:       770.0000000
  free_energy:      -139.7939557
  entropy:           300.8222812
  heat_capacity:     116.5443254
  energy:             91.8392008

- temperature:       780.0000000
  free_energy:      -142.8097145
  entropy:           302.3263193
  heat_capacity:     116.5781990
  energy:             93.0048145

- temperature:       790.0000000
  free_energy:      -145.8404197
  entropy:           303.8116206
  heat_capacity:     116.6108255
  energy:             94.1707606

- temperature:       800.0000000
  free_energy:      -148.8858860
  entropy:           305.2786413
  heat_capacity:     116.6422653
  energy:             95.3370271

- temperature:       810.0000000
  free_energy:      -151.9459330
  entropy:           306.7278212
  heat_capacity:     116.6725747
  energy:             96.5036022

- temperature:       820.0000000
  free_energy:      -155.0203844
  entropy:           308.1595846
  heat_capacity:     116.7018071
  energy:             97.6704750

- temperature:       830.0000000
  free_energy:      -158.1090680
  entropy:           309.5743409
  heat_capacity:     116.7300125
  energy:             98.8376349

- temperature:       840.0000000
  free_energy:      -161.2118158
  entropy:           310.9724855
  heat_capacity:     116.7572382
  energy:            100.0050719

- temperature:       850.0000000
  free_energy:      -164.3284636
  entropy:           312.3544002
  heat_capacity:     116.7835290
  energy:            101.1727765

- temperature:       860.0000000
  free_energy:      -167.4588510
  entropy:           313.7204541
  heat_capacity:     116.8089268
  energy:            102.3407395

- temperature:       870.0000000
  free_energy:      -170.6028210
  entropy:           315.0710038
  heat_capacity:     116.8334714
  energy:            103.5089522

- temperature:       880.0000000
  free_energy:      -173.7602205
  entropy:           316.4063941
  heat_capacity:     116.8572005
  energy:            104.6774063

- temperature:       890.0000000
  free_energy:      -176.9308995
  entropy:           317.7269586
  heat_capacity:     116.8801496
  energy:            105.8460936

- temperature:       900.0000000
  free_energy:      -180.1147114
  entropy:           319.0330201
  heat_capacity:     116.9023524
  energy:            107.0150068

- temperature:       910.0000000
  free_energy:      -183.3115126
  entropy:           320.3248911
  heat_capacity:     116.9238407
  energy:            108.1841383

- temperature:       920.0000000
  free_energy:      -186.5211629
  entropy:           321.6028741
  heat_capacity:     116.9446447
  energy:            109.3534813

- temperature:       930.0000000
  free_energy:      -189.7435248
  entropy:           322.8672621
  heat_capacity:     116.9647930
  energy:            110.5230290

- temperature:       940.0000000
  free_energy:      -192.9784638
  entropy:           324.1183392
  heat_capacity:     116.9843128
  energy:            111.6927751

- temperature:       950.0000000
  free_energy:      -196.2258481
  entropy:           325.3563804
  heat_capacity:     117.0032299
  energy:            112.8627133

- temperature:       960.0000000
  free_energy:      -199.4855488
  entropy:           326.5816526
  heat_capacity:     117.0215687
  energy:            114.0328377

- temperature:       970.0000000
  free_energy:      -202.7574395
  entropy:           327.7944147
  heat_capacity:     117.0393524
  energy:            115.2031428

- temperature:       980.0000000
  free_energy:      -206.0413962
  entropy:           328.9949176
  heat_capacity:     117.0566032
  energy:            116.3736230

- temperature:       990.0000000
  free_energy:      -209.3372978
  entropy:           330.1834049
  heat_capacity:     117.0733420
  energy:            117.5442731

- temperature:      1000.0000000
  free_energy:      -212.6450251
  entropy:           331.3601133
  heat_capacity:     117.0895888
  energy:            118.7150882
