  4.1155645e-06   1.3918304e-09
 -2.8641202e-07   3.5880795e-08
  7.7693521e-06   8.8907836e-07
  4.9290852e-06   7.3077207e-09
  2.9712786e-05   1.2022915e-06
  3.3838401e-06   2.2306972e-06
 -1.8061219e-05   1.1484743e-07
  1.3780108e-05   9.0170760e-10
  3.0503557e-05   9.4422481e-10
  3.2426419e-06   3.4431208e-10
 -6.0272355e-06   2.6508819e-06
 -1.6274278e-05   1.2977003e-09
 -8.9824471e-06   9.6825969e-10
  2.3409226e-05   1.3986113e-09
  8.8287452e-06   4.4360495e-06
  4.7789170e-05   1.3207792e-09
  1.9758976e-05   5.5714882e-09
 -1.9417379e-05   2.5219498e-07
  1.2800781e-05   2.1708026e-07
 -1.1043216e-05   1.7799083e-11
  8.8569122e-06   3.1648611e-07
  1.3248701e-05   2.0245544e-14
 -1.1466343e-05   1.2130998e-10
  1.4073394e-04   8.8076300e-12
  3.2482715e-06   1.1813595e-11
 -8.2005135e-06   2.2468572e-11
  2.4970184e-05   2.1934009e-06
 -1.5838019e-05   2.3951782e-07
  3.2726466e-06   2.3054572e-10
  2.0438882e-05   5.5848121e-10
  4.2607017e-02   3.1349745e-10
 -1.7982420e-06   5.4610710e-13
  2.0340201e-06   4.1388599e-13
  2.8999009e-06   1.0638873e-10
 -4.8713490e-02   3.3678405e-10
  6.8115618e-04   3.0829683e-10
  4.8154165e-05   1.7296067e-10
 -5.9997063e-05   4.3288837e-13
  1.0758477e-04   1.5262661e-11
  3.8130569e-01   4.1590900e-09
  7.3119186e-02   2.1960975e-12
 -3.2449221e-05   3.2981017e-08
 -9.0580079e-06   6.8458661e-10
  7.2172616e-06   2.3885503e-08
  3.0673153e-04   8.1968876e-09
  1.2357941e-05   3.5610726e-11
 -2.1147878e-06   3.5099339e-09
  1.4036809e-05   4.2571519e-10
  1.4538096e-02   1.2355418e-09
 -7.2044149e-02   5.3251235e-09
 -6.1450050e-06   6.9223574e-09
 -7.4445893e-06   1.6923013e-11
 -5.0099174e-05   4.6740396e-08
  1.2084796e-01   3.8397733e-08
  7.7798195e-06   5.8852532e-13
 -7.6880260e-06   3.4324336e-07
  6.4561814e-06   1.6629316e-09
 -8.4444382e-06   2.3907634e-07
 -5.6826802e-06   3.1408647e-09
 -2.3693441e-05   7.1180392e-07
 -5.0457561e-04   2.2874633e-13
 -1.3643276e-04   1.3358706e-08
 -8.4764779e-06   1.3236042e-08
 -2.1122847e-05   3.3957098e-10
 -2.5578785e-05   2.6800576e-08
  2.6470754e-05   3.6069011e-06
 -3.0243698e-05   8.7168676e-14
 -3.1462248e-05   3.9173937e-08
 -8.3657642e-07   1.2303501e-07
  7.4837290e-06   5.1853817e-07
  2.3652234e-05   9.0444976e-09
  3.2510613e-07   1.0851865e-09
 -1.8256482e-06   8.1765545e-09
 -4.0026061e-05   5.1291577e-10
  2.1918484e-06   2.9527358e-08
 -1.7216735e-05   1.9759036e-06
  4.3584311e-07   7.0468396e-08
  1.4048299e-05   6.3072349e-07
  7.5735979e-06   2.6820854e-09
  1.7929088e-06   9.6887597e-08
  1.4123184e-05   4.1688872e-06
  1.9816225e-05   8.6737373e-08
 -3.8502971e-04   1.3906734e-07
 -4.6280543e-06   2.6198668e-08
 -7.0127430e-06   2.2183753e-11
 -1.2788527e-05   5.5066430e-08
 -3.9829156e-06   2.0698778e-07
 -8.0253616e-05   3.4394688e-07
 -5.9445615e-06   2.7524813e-10
 -1.8131806e-06   1.0636178e-06
  2.2119406e-01   5.5402346e-11
  6.8962463e-06   1.4379666e-08
 -9.0843778e-06   1.0391996e-09
 -5.3223818e-07   3.3611278e-10
 -1.6336983e-01   6.2019070e-11
  2.2310922e-01   1.4545173e-12
  9.4121744e-05   4.4117517e-13
  5.3075109e-06   7.2306769e-08
 -9.7793847e-02   2.9240780e-08
  6.6052756e-04   2.3462996e-09
  3.9280560e-05   1.6690213e-10
 -1.8242221e-05   5.5714969e-07
  4.4256217e-06   1.7248076e-09
 -3.2160995e-05   3.3476208e-10
 -1.5431669e-06   9.5155776e-12
  2.7755663e-05   4.8740478e-09
 -1.5290123e-05   1.8820961e-08
  2.9653746e-05   1.4238133e-11
  4.0929757e-05   5.5895229e-11
  2.5547467e-06   2.7199032e-10
  1.2364903e-06   4.3999597e-14
  1.2399515e-05   1.1680820e-07
 -4.4544532e-08   2.5132746e-10
  8.5986821e-06   2.9786362e-12
  6.6688867e-06   1.1470442e-10
  3.6865255e-05   1.3088146e-08
  5.4068423e-08   4.3231274e-13
  1.2806110e-05   1.3024325e-07
 -3.5887031e-06   5.3939715e-07
 -2.2239693e-04   7.4904008e-08
 -1.5973933e-06   5.8299428e-08
 -1.2408042e-05   2.4458197e-10
 -5.9093163e-06   1.9673432e-06
 -6.4723740e-06   1.2446650e-07
  5.2525966e-06   3.3009951e-07
  8.8023362e-06   1.2398955e-09
 -3.0392619e-05   1.0011695e-06
  5.7415900e-06   4.3138615e-10
  2.2941579e-06   2.6054954e-06
 -9.5786936e-06   1.9143220e-09
  2.7204624e-05   9.1504280e-09
  2.9765521e-05   4.0415380e-06
 -2.6288999e-05   1.1406371e-06
  5.3064668e-05   1.2585843e-08
 -7.3997744e-06   1.0351211e-08
  1.1316292e-05   1.5708249e-08
  5.9362583e-06   2.8023200e-10
 -1.2039986e-05   1.4339040e-10
  2.8636025e-06   8.9376909e-11
  3.1794567e-05   1.9567285e-08
  2.8599481e-05   2.2782268e-07
  6.0910211e-06   8.5920251e-14
  6.9616522e-07   7.8987283e-13
  4.1042724e-05   7.1365434e-07
 -1.9687714e-06   3.1121007e-13
 -3.0543299e-05   9.8345095e-07
  2.6471298e-07   2.4248619e-09
 -1.9659868e-05   1.0062992e-11
 -2.0392694e-05   7.3785806e-08
 -8.8794962e-07   5.9692100e-09
  3.3140338e-06   1.1509484e-07
 -2.7224917e-06   1.2690808e-09
  1.9202365e-05   3.3106992e-10
  3.9483580e-06   6.3281487e-07
  3.7431419e-06   6.3565452e-08
  2.7928825e-05   4.6047020e-07
 -1.6707834e-06   9.6934292e-09
  3.3999913e-06   2.6995870e-08
  4.1835751e-06   1.0254767e-07
 -3.2655757e-06   5.5049570e-10
  1.3504706e-06   3.4809367e-10
  2.9055191e-05   3.6810798e-07
 -1.6397335e-05   1.1967882e-10
  2.0905916e-05   1.3527760e-07
  2.2315685e-06   3.7652505e-08
 -6.1530200e-06   2.6589777e-08
  4.2089118e-06   1.4333989e-08
  3.9855608e-05   1.3408343e-12
 -3.2041458e-05   6.2994218e-08
  6.6210634e-07   1.9553093e-08
 -2.8936918e-05   3.5746675e-09
  2.9926739e-06   1.3122540e-06
 -3.8341695e-06   2.0755184e-09
 -1.7448208e-05   1.8815996e-08
 -1.8084956e-04   5.9702945e-09
  7.8197615e-08   1.7640046e-07
  1.0180526e-05   2.4714768e-09
  1.1669091e-04   9.6589892e-09
 -3.5521120e-05   5.2298309e-12
 -1.3111133e-05   6.8901304e-06
 -1.4091953e+00   1.4964992e-12
  1.0098398e-06   1.5476223e-15
  5.4535767e-06   3.3731398e-10
 -4.8032090e-01   2.3048881e-11
  1.5855129e+00   2.7556691e-11
  1.0516530e-05   1.3410669e-09
 -1.4534993e-05   8.1878272e-07
 -9.5762538e-05   1.0819888e-14
  1.7477039e-03   4.4336139e-09
 -2.4340478e-04   6.2549193e-12
 -3.2785378e-02   2.0898311e-12
  5.2797541e-06   7.2001956e-09
 -1.8741715e-06   7.0594093e-11
 -1.9930047e-04   8.5013767e-13
 -6.0153907e-06   9.9254482e-10
 -3.5854150e-04   1.0741547e-14
 -1.1604935e-06   4.3592681e-09
  2.5671610e-05   2.3053180e-06
 -3.5606374e-03   1.1160643e-10
  4.8583381e-02   5.1867581e-09
 -2.4823665e-05   1.0412341e-08
 -2.3567750e-06   9.8205896e-07
 -8.3565274e-06   9.6255530e-12
 -7.8704774e-02   8.1779357e-09
 -1.0861847e-04   3.6707395e-12
  6.6393554e-06   4.3391708e-08
 -6.7316942e-05   1.7522819e-06
 -3.5198302e-09   1.1556547e-09
  5.6481596e-05   1.2451501e-09
 -6.4872625e-06   4.4661348e-08
 -7.5252259e-01   3.6524661e-09
 -3.3772050e-03   4.5413135e-11
 -8.7621738e-05   7.8640939e-12
 -6.2289625e-02   1.6396587e-13
  7.7564055e-01   8.9069778e-13
 -1.6729416e-02   3.4579556e-10
 -3.7653228e-06   1.3411964e-11
  1.1727399e-05   8.3870322e-07
  1.1409392e-04   2.0286038e-08
 -1.9995722e-01   3.8344894e-13
 -1.0482734e-01   3.7435875e-08
 -9.1460806e-06   7.7903052e-11
 -3.7363284e-06   1.3384507e-06
 -2.1403929e-02   8.4390231e-14
  5.0498634e-06   1.2312969e-10
 -9.3898907e-02   1.3719774e-09
  3.4061063e-06   2.9783782e-13
 -1.0139530e-06   4.6153813e-11
 -2.2099964e-02   2.3633864e-09
  7.9549462e-02   8.3024450e-09
 -2.8800013e-04   5.4949345e-10
  1.9701813e-05   9.4019020e-07
  2.7627932e-05   2.3824734e-08
 -1.6563292e-01   4.1836405e-09
 -2.5947943e-02   8.5015924e-13
  2.3976264e-07   7.3519381e-13
  1.3826610e-05   3.7932590e-08
 -3.9385267e-07   7.5828126e-07
  1.1410598e-05   1.6412076e-10
  5.6773056e-06   2.2967185e-08
  2.3814967e-02   1.6744028e-12
  8.4010626e-06   4.3216550e-09
 -2.5055668e-05   1.3919688e-10
 -4.8993406e-06   7.4740691e-12
  6.7343019e-05   5.1980908e-10
  4.0822571e-05   4.4168458e-14
 -4.3467585e-07   7.4554143e-13
  1.2439710e-05   8.7364227e-11
  1.0594429e-04   3.0861796e-11
  7.6524890e-03   2.8614555e-10
  1.4512059e-05   8.4165883e-11
 -4.6406230e-06   7.0366767e-08
 -9.0028780e-06   6.6939714e-07
  2.2759018e-06   4.1060414e-08
 -4.3181615e-05   3.9371271e-09
  8.5569773e-06   9.1987863e-16
 -1.4987352e-05   2.2575469e-08
  1.9613685e-06   7.1421052e-10
  9.2629911e-05   1.3643622e-10
 -3.6832091e-05   5.2421567e-10
  8.5210719e-05   3.8826711e-09
  3.4435988e-07   2.6534133e-09
  3.3167438e-05   7.7478335e-09
  7.1852366e-05   5.7631469e-11
 -2.5729159e-05   2.6026267e-12
  1.8846193e-06   1.1891199e-08
 -5.7191428e-06   1.7334266e-13
  3.1271275e-06   6.4313211e-16
  1.7379248e-06   1.6304043e-09
  1.7398368e-06   5.3270290e-09
  1.2490368e-02   2.2129798e-12
  9.0577823e-06   5.7091463e-12
 -2.4317585e-05   1.3756173e-09
 -5.3375652e-06   5.4222588e-13
  3.8094054e-06   1.8569177e-13
  4.4754954e-04   1.1336467e-08
  4.4945916e-04   1.1610490e-08
  3.7570760e-07   8.5839382e-08
  1.4003273e-02   1.2719528e-11
  4.6918523e-03   3.1784952e-15
 -1.2090142e-06   6.5575407e-09
  9.3310257e-07   2.4417197e-08
 -6.1957726e-06   2.6652341e-08
 -1.8304785e-06   5.2432453e-10
  2.4993336e-04   7.3295348e-09
 -6.6099199e-07   2.9406866e-11
  2.5032508e-05   1.0731692e-13
  1.0798604e-05   3.4278148e-07
 -4.2086853e-05   2.7621616e-10
 -1.2976439e-04   9.1868211e-09
  9.2142918e-06   4.7377080e-09
  5.5412970e-06   3.6064413e-10
 -5.7458665e-06   7.9061118e-07
  7.6880249e-05   2.8600867e-08
  5.4429579e-06   9.7987440e-10
 -1.3132704e-05   1.1920006e-06
 -5.9024455e-06   1.2208965e-07
 -1.5125051e-05   4.1663102e-07
 -1.2174078e-04   2.0511348e-09
  4.9695059e-06   2.8407317e-07
 -4.0181923e-01   5.3156073e-11
 -4.5551756e-06   4.8438471e-09
  1.4923473e-06   2.4653827e-08
 -4.7631120e-06   4.7971772e-13
  1.4247113e-05   1.0201862e-12
 -1.1504565e-06   6.1504251e-09
 -6.6000580e-06   2.8733127e-10
  2.4163469e-06   9.2873730e-11
  1.0477603e-06   1.8221263e-13
 -1.6258997e-01   3.4770253e-12
 -6.0646325e-06   3.5431946e-11
  9.6986214e-06   3.2224147e-13
 -1.4040172e-05   1.8057833e-10
  2.4859835e-06   1.0635516e-09
  1.0813394e-05   1.4251747e-10
 -8.8429719e-05   4.8024988e-09
  6.5614399e-06   8.6369553e-08
  2.1628916e-06   3.0997259e-07
 -5.7463192e-05   1.8032078e-09
  8.0426352e-04   1.3214625e-09
  4.6892077e-05   2.0359698e-09
 -4.6719524e-07   4.0494387e-13
  2.2951717e-06   1.0998615e-10
 -3.4799599e-05   1.0192108e-10
  1.0706139e-05   2.9954041e-08
 -1.6951395e-05   2.4876331e-07
 -4.6717641e-06   2.5242647e-07
  1.1834778e-06   2.7123748e-10
 -2.0203710e-05   5.7178118e-10
 -5.9037852e-06   1.1011476e-08
 -3.1304146e-05   7.1261929e-06
 -5.6275758e-06   1.8043947e-08
  2.1525218e-05   5.8567935e-11
 -8.3102987e-06   5.9249351e-06
 -8.0734448e-05   1.5871445e-11
 -7.3349502e-06   1.9498044e-07
 -3.6441384e-06   6.5796820e-07
 -1.2998229e-04   3.4048238e-08
 -5.1893662e-06   2.9744095e-07
  1.0548682e-06   5.5329032e-08
  1.6114253e-05   2.8545511e-08
  8.7625604e-06   9.0416569e-07
 -2.5702782e-05   1.8227110e-10
 -1.4571710e-06   8.4004944e-07
  2.5649904e-05   1.8802343e-11
 -2.0097295e-05   7.0151843e-11
  3.2247321e-05   3.1368341e-09
 -5.0951553e-06   2.8458826e-14
  1.1989328e-05   3.1198736e-06
 -3.7415762e-06   1.9765260e-10
  2.8671566e-06   3.0625307e-12
  8.6711716e-06   7.6391588e-16
 -1.7745903e-06   9.4023600e-10
 -1.3605128e-05   9.8921502e-09
  1.2832584e-05   1.8800581e-06
 -1.6635875e-05   1.7402833e-08
  4.3960677e-06   6.4910233e-07
  1.2483390e-05   3.4347618e-09
 -2.3163000e-05   2.1026603e-06
 -2.7697356e-04   3.1254499e-09
  1.6514448e-06   3.4992860e-07
  2.0378675e-05   7.9947682e-07
  4.1166563e-06   9.1692903e-07
  9.6967915e-06   1.0205329e-06
 -7.4977593e-06   6.8802301e-15
 -1.9875839e-05   1.0407354e-07
  2.7979202e-06   9.0207713e-08
 -4.8215088e-06   1.2258105e-11
 -2.8811752e-05   1.6221327e-09
  4.4126018e-06   9.4561692e-11
  3.9552801e-06   8.6993985e-08
  3.4703279e-01   6.0509797e-07
 -4.2314914e-05   8.7320575e-07
 -3.6498643e-06   2.7655295e-13
  1.3559612e-06   7.9468798e-10
 -6.6828911e-06   8.2215884e-08
 -2.9212495e-05   9.4640311e-12
 -2.8217888e-05   1.1525624e-08
  5.3669144e-05   1.4234408e-10
 -2.2987949e-06   6.0963362e-07
  1.7982229e-05   9.4716471e-11
 -1.6816806e-04   2.0917830e-09
 -1.6855134e-05   8.2042357e-07
  1.2736250e-05   7.8772609e-07
  3.1367229e-06   4.7258456e-07
  2.6909640e-06   5.9970459e-11
  4.1164035e-06   3.4938075e-10
  4.9754323e-07   2.7227163e-06
  2.5983736e-06   7.0781948e-07
  4.1390977e-06   3.1527339e-08
  2.8694719e-06   3.6784709e-08
 -8.1130420e-06   1.3837042e-12
 -4.5985721e-06   1.4788881e-10
  2.5720576e-05   8.1550183e-07
  5.1836093e-07   9.1848640e-11
  9.5515943e-06   6.5376668e-07
  2.2814688e-06   2.1443665e-09
 -1.1011221e-06   1.3323401e-10
 -1.9855547e-06   1.3095893e-09
  1.4313975e-05   9.8943742e-11
 -3.3402689e-06   9.9018536e-11
 -5.7589136e-07   5.2872970e-08
 -2.9415429e-05   9.3629264e-11
  6.9572830e-05   2.3065444e-10
 -2.6075385e-04   6.4263529e-12
 -1.8517914e-05   3.6275782e-10
 -7.3758970e-06   2.4273000e-08
 -2.4781788e-05   8.0268538e-09
  2.4837843e-06   3.6028547e-09
 -1.1522490e-04   6.9032183e-08
 -3.8796256e-06   1.2420683e-08
  3.5415896e-06   6.6258998e-08
  1.4196296e-05   1.2297289e-06
 -7.8880439e-06   3.3745959e-10
  5.7137822e-06   1.9155792e-13
  9.2461423e-06   1.9000669e-07
 -8.6749405e-06   3.3438237e-09
  1.3764907e-05   1.0529897e-07
  4.0555207e-07   1.7235124e-08
 -7.4630186e-09   2.0193553e-08
  2.9911134e-01   6.2813812e-09
  7.6666135e-01   3.7597278e-10
  4.2497102e-02   5.8231905e-12
 -6.3831240e-01   6.3433236e-10
 -8.5032463e-01   2.7089384e-09
  5.7017767e-01   9.4263539e-09
 -1.8347730e-05   5.3631220e-07
  1.2699515e-05   5.2439038e-08
 -9.3152040e-01   5.9521108e-12
  1.4492539e-02   1.3215350e-11
  3.1301302e-01   2.6590069e-13
  6.1267933e-06   2.0624373e-06
 -8.6581497e-07   2.4811683e-07
 -2.6054734e-01   1.0004682e-10
 -3.0628438e-04   4.8571713e-10
  1.6732965e-01   1.6872150e-10
  1.4354211e-05   1.3562739e-09
  3.2841071e-04   5.8027372e-10
  1.3522712e-03   9.4167119e-10
 -3.4638414e-01   2.1497100e-09
  2.4833150e-01   2.8016558e-08
 -1.3155005e-05   7.8311416e-08
  3.3677625e-05   6.1589617e-10
  7.1652371e-01   5.4250271e-10
  2.3997284e-01   1.0688422e-08
  5.4399243e-06   1.3044923e-12
 -9.5650648e-06   8.9765312e-10
  7.0930851e-06   1.3983130e-08
 -5.9694543e-02   6.5988570e-10
 -6.1115794e-02   1.6502752e-10
 -3.1782274e-05   1.1969954e-09
  5.0978902e-06   1.9125578e-06
 -6.9230791e-06   1.0536196e-07
 -1.9709474e-05   7.9665034e-07
 -1.6404159e-05   2.0734967e-09
 -5.0738279e-05   7.7070755e-16
  8.6199843e-06   7.8094352e-08
  1.8751413e-06   1.3980778e-08
  8.9468931e-06   7.4106822e-07
  2.5947681e-06   4.1586716e-08
 -6.6903594e-06   6.9610059e-07
  8.4757503e-06   6.1824103e-08
  9.6298954e-06   7.5476603e-10
  1.1706333e-05   9.2478835e-08
 -1.8241826e-05   4.3753599e-07
 -4.4930908e-05   1.5252350e-09
  3.3964992e-07   7.8941360e-11
  6.7153909e-05   6.1230450e-16
  6.8147514e-05   4.1284870e-10
 -1.3246614e-05   8.3004671e-12
 -1.1170052e-05   3.4747597e-11
 -5.3614935e-06   1.1962348e-06
  6.7546889e-06   4.0236515e-08
  4.7561748e-06   2.3408438e-06
  1.0357128e-05   6.2190385e-11
  1.3520842e-05   4.6238071e-09
  3.4011748e-05   6.6599887e-07
 -3.5059536e-06   9.7303630e-11
 -2.3437700e-05   3.2852096e-11
  9.4684410e-06   7.8326948e-08
 -7.8439039e-01   3.7536774e-10
 -4.7703433e-01   3.5531716e-10
  3.7259815e-06   4.8203902e-12
  6.0879302e-08   3.6366507e-11
  2.6655796e-05   1.0409816e-16
 -1.0871285e+00   6.9576948e-11
  6.5561544e-06   1.3141243e-09
 -1.7241045e-06   3.6359731e-07
 -6.9288529e-02   4.8605758e-10
 -1.0771809e-01   4.7106856e-15
 -1.4964572e-01   4.3508730e-12
  2.3402410e-05   2.8693455e-06
  1.8689454e-06   2.7651759e-09
 -2.8217595e-05   1.5413429e-10
  1.2332917e-05   6.0724736e-10
 -6.1262008e-02   6.6465083e-10
 -2.3412165e-06   1.2888158e-13
  1.4162106e-05   2.2452995e-09
 -5.4113809e-02   2.1215567e-10
  4.9891945e-02   2.6846132e-09
 -4.1261412e-02   5.3248311e-10
  6.6195712e-06   6.5714802e-09
  1.8561157e-05   3.8458406e-08
 -2.9736820e-01   2.0805778e-08
 -2.7112231e-02   5.8226585e-10
 -4.6740824e-05   1.3121727e-09
 -9.6780122e-06   8.0898115e-09
 -1.2267778e-05   2.1716308e-11
  9.3899085e-05   4.0243055e-11
 -4.5609457e-07   6.9645111e-08
  3.2299035e-06   1.3088896e-07
  2.1928636e-05   1.0029858e-06
  4.2031563e-05   8.8467544e-08
 -7.3912083e-06   1.3140830e-06
  1.3498548e-06   1.6335790e-11
  1.6648255e-06   1.4672470e-08
  6.1040703e-07   3.7788811e-07
  1.4605327e-05   2.3557710e-07
  3.0095971e-06   5.1536149e-06
  1.7451053e-05   5.8240310e-09
  3.7146252e-05   2.5234876e-09
 -1.6531283e-05   6.9109500e-09
  1.2583952e-06   1.7536570e-09
 -2.8861731e-07   1.7563742e-08
 -1.4512116e-05   1.1657221e-14
  1.2084751e-05   3.8161403e-09
 -4.1985777e-06   2.6280576e-08
 -1.9402580e-06   5.8588212e-12
  1.1741499e-03   1.0724288e-07
 -9.4739198e-06   1.5862669e-07
 -6.5500230e-06   2.1225599e-06
 -3.7434336e-05   4.9552938e-07
 -8.6772768e-04   2.4951592e-07
  5.0183498e-06   4.4871030e-08
 -7.8683024e-06   6.9674321e-08
 -9.9072804e-06   7.0921018e-08
  1.9193865e-05   2.9446048e-10
  3.8915412e-05   8.1301647e-07
  1.0401614e-06   3.0361008e-10
  1.4111711e-06   6.2836203e-10
  4.4558188e-01   3.8343620e-11
 -2.1798503e-02   4.1579587e-11
 -1.8955709e-01   7.2062502e-11
  2.6702399e+00   2.4758043e-10
 -2.8197544e+00   8.3222762e-11
  1.0902378e-01   5.3460658e-09
  2.7699532e-05   4.1297628e-07
  1.8097944e-05   6.6688671e-08
 -2.0898946e-03   2.6481428e-11
  2.3747627e-01   1.1450543e-10
  1.3812895e-01   5.0494653e-10
  9.6361473e-06   2.4649438e-09
 -3.2333500e-07   1.1277512e-10
  2.0511443e-05   8.7792040e-10
  1.6977502e-02   6.7120204e-10
  4.6027612e-02   1.4295150e-11
  3.2982698e-06   2.1450031e-09
 -7.1500767e-06   2.2767590e-07
  5.0849801e-05   5.1403460e-12
 -1.1749683e-04   1.6304806e-11
  1.4044744e-01   5.6066214e-09
 -4.3292880e-06   3.4000236e-10
 -2.4678661e-06   4.3432194e-10
  4.2510581e-01   1.1644512e-11
  7.5433016e-02   3.2167208e-08
 -2.1506014e-05   1.7469601e-08
  3.3728347e-06   1.2245989e-09
 -3.1010863e-06   3.9278945e-07
 -2.3735048e-04   1.0231950e-07
  9.7410462e-05   1.8947299e-09
 -2.9762030e+00   3.1202512e-09
 -5.8889035e-02   4.4860376e-11
  1.2173208e+00   3.3898072e-11
  2.2101290e+00   1.4662320e-08
  4.9625844e-01   1.6215771e-09
  3.5222396e-01   1.3572404e-11
  5.2023474e-06   2.8226650e-14
  1.1348802e-05   1.4820659e-08
  4.1188103e-01   9.8056674e-11
  1.8932854e-01   9.3372321e-10
 -3.5607731e-01   5.1872746e-09
  3.2124008e-06   1.5454800e-08
  1.4260482e-06   1.3403937e-09
  9.6850945e-03   7.2447451e-11
  4.4940662e-05   3.2007337e-12
 -1.4279616e-01   1.3536415e-09
 -4.1363379e-05   5.3749800e-13
  2.3496044e-05   3.8997532e-06
 -2.4634078e-02   2.4252951e-09
  2.4870406e-01   4.5955728e-10
 -1.2280168e-01   2.2557364e-12
  3.9645629e-06   7.7019259e-08
 -1.1353689e-05   9.8863788e-09
 -4.7429588e-01   3.7749120e-11
 -1.4437790e-01   4.6391528e-12
 -2.3987739e-05   1.6095925e-10
  1.6377477e-06   9.1714995e-08
 -3.9535048e-06   3.3682471e-07
  3.5059638e-02   1.2587778e-10
  6.0539762e-03   1.0069766e-13
  5.4453779e-04   1.0004189e-08
 -2.8045663e-06   9.7481032e-15
  1.6948316e-05   5.9703457e-13
 -9.0219492e-06   7.6563945e-13
 -1.2658850e-05   1.7201579e-11
  2.0894799e-05   2.1726612e-07
 -4.7506096e-06   1.7486683e-06
  5.1938337e-06   2.1994863e-08
  2.0437307e-07   6.9004902e-10
  8.3166524e-06   8.5786525e-12
 -1.3129163e-05   1.3464277e-09
 -1.4542367e-05   8.0512723e-07
 -2.6262774e-06   4.1253761e-11
 -4.2076631e-06   5.6646025e-11
 -9.5996063e-07   1.2712399e-10
 -6.8100699e-06   3.8430962e-08
  1.6537439e-06   1.1576424e-08
  4.7782619e-06   1.0768859e-08
  1.4686980e-06   5.4592864e-10
  6.7163296e-07   2.3776538e-11
  2.6736964e-04   2.5778685e-14
  2.1190534e-05   5.3884156e-07
  4.1762364e-04   1.0829342e-09
  4.4326625e-06   2.3389030e-13
 -1.2444589e-05   3.7798458e-09
 -2.1563010e-06   3.4238922e-12
  1.6159531e-06   1.7066333e-09
  1.9762385e-05   2.7392899e-13
 -4.8161775e-05   7.8880522e-19
 -3.8504413e-06   5.9797651e-09
 -1.1113829e-05   8.2846327e-07
 -8.5558395e-06   1.7253105e-07
 -2.8585719e-06   2.0630396e-06
  5.4723814e-06   3.4163311e-10
  3.0919894e-06   2.6891977e-08
  2.2653168e-07   9.6685902e-11
 -1.2594649e-06   1.1815910e-08
 -1.7472434e-05   1.3537281e-12
 -2.4949060e-05   2.7271851e-10
 -2.7190392e-05   4.5054906e-12
 -3.7230286e-05   7.9102239e-07
  4.0375594e-06   2.4290685e-08
  1.7642542e-06   4.2625972e-10
  3.9352337e-05   5.0701328e-06
 -1.7728660e-05   1.0358686e-07
  2.1078187e-05   5.3054459e-09
 -2.9593266e-06   9.4832373e-08
  4.1453391e-06   3.1798637e-11
 -1.9039393e-06   2.4106368e-09
 -4.3068958e-06   2.6281530e-06
 -1.0193230e-05   2.5059007e-08
 -5.9307276e-06   2.9277072e-10
  1.1164786e-05   5.3211303e-12
  4.3652576e-06   2.3411193e-08
 -7.7871700e-06   3.5298058e-07
 -5.9611707e-06   1.6150612e-07
 -8.2761635e-06   5.9192541e-08
  4.0593659e-05   1.3404825e-08
  2.9232840e-06   2.1284499e-10
 -5.9064879e-04   1.1997612e-12
  1.8537140e-06   2.3302975e-09
 -1.3291848e-05   3.4878606e-10
  6.4858505e-06   6.2172744e-13
  1.3590780e-04   3.9614162e-14
 -5.7532987e-05   2.2571848e-07
  1.1601995e-05   2.2188315e-11
 -1.8598931e-06   8.7723817e-10
 -8.2127644e-06   2.1058290e-06
  2.2872684e-06   1.2088849e-08
 -1.4907591e-05   6.4889823e-11
 -2.2746242e-05   2.3278448e-08
 -5.4084871e-06   9.9753462e-11
 -6.1934279e-06   4.1285118e-09
 -1.4134758e-04   1.2576250e-10
 -3.3836746e-05   1.1822645e-07
  6.3431035e-06   1.5198778e-10
  3.4314348e-06   1.7414026e-08
 -1.7140957e-05   5.2861171e-10
 -1.4994624e-06   4.6022799e-07
  1.4532089e-05   1.2422865e-07
  2.2648272e-05   9.5895382e-07
 -7.5169432e-06   1.0418794e-09
  6.6479815e-06   1.5721973e-06
  7.6585685e-08   7.3636990e-09
 -7.9990081e-05   3.8004139e-10
  4.8930318e-08   2.5886820e-13
  1.2095062e-06   7.9402973e-08
 -8.8368588e-06   1.9505902e-07
  1.7970675e-05   1.3790725e-07
  4.1123353e-06   2.6840991e-10
 -7.8719443e-01   2.1086970e-10
 -8.4332013e-01   1.1965847e-09
 -7.8610860e-02   4.4596861e-11
  1.8347440e+00   8.8565786e-09
 -9.0335202e-01   8.0051222e-13
 -1.4291687e-02   8.3245848e-11
 -7.6412898e-06   3.7366639e-09
 -1.5343699e-05   2.1413713e-09
 -1.0751385e-02   1.0752455e-10
 -6.2360350e-02   6.9683716e-12
 -1.2976012e-01   5.7132240e-11
  1.3735071e-06   1.8995729e-07
 -2.4797349e-05   9.9332338e-09
  3.4460082e-04   2.5382361e-11
  1.2556964e-04   1.6036428e-09
 -1.2041175e-01   6.9323845e-11
 -4.1679974e-05   3.4837105e-12
 -2.0874950e-05   9.4189834e-10
 -5.9614992e-01   1.0356166e-09
  1.5040433e-01   1.2092556e-11
 -1.0064887e-02   1.5081663e-09
  1.5808808e-05   6.3071368e-11
  8.9752683e-07   9.7041618e-07
 -3.2217020e-01   2.5903441e-10
 -3.2947406e-02   2.0726405e-09
 -1.6730726e-05   1.0440846e-08
 -5.9275258e-06   1.4279934e-06
  1.2022571e-06   3.9845579e-12
  7.9530542e-04   7.7474721e-10
  1.9123972e-05   2.2929432e-10
 -1.0973786e-05   7.1072542e-13
  1.1491607e-07   4.5741106e-07
  1.0483272e-05   2.6013662e-08
  1.1962706e-05   2.9154306e-09
 -7.1015597e-06   4.5860290e-12
  3.4094242e-06   1.3550677e-08
  1.1758557e-06   3.6256853e-10
  1.7076420e-06   7.0480971e-10
 -5.2261828e-07   1.5605073e-10
 -1.2803378e-06   4.8129601e-11
  1.4081673e-05   5.8352367e-07
 -1.3825063e-05   8.7681804e-13
  3.3714032e-06   4.8775940e-12
  2.4642864e-05   3.6935413e-11
  4.7063582e-05   6.4249477e-08
  1.0851391e-05   1.7967481e-06
  1.3367984e-06   1.5490481e-12
 -1.0247020e-06   4.0516654e-10
 -1.2367957e-05   3.0081833e-09
  4.6762903e-08   1.1919047e-06
  1.6958213e-05   3.3453198e-08
  8.4350519e-05   5.4826991e-08
 -1.5776635e-06   2.4017660e-10
  5.9304716e-06   3.8814782e-08
 -2.0283944e-05   7.0447136e-08
  4.2158412e-05   7.9712201e-09
 -3.4978509e-06   1.0118482e-07
 -1.3982072e-05   1.0877044e-08
 -6.5141880e-06   2.0126742e-09
  2.2642973e-06   5.4941887e-07
 -5.6803074e-05   1.4328701e-11
 -5.0940881e-03   5.4660184e-15
  8.7389353e-06   9.1225933e-12
 -1.0844263e-04   7.7018995e-15
 -6.0410966e-06   1.0787397e-14
 -5.3562026e-02   6.0242444e-10
  1.5937017e-05   2.4607627e-07
 -1.2469995e-06   5.6646027e-10
 -2.0677400e-05   4.5282954e-14
 -1.6921911e-01   1.9595775e-13
 -1.4813973e-05   4.3767932e-09
 -5.9529025e-06   1.2835645e-08
  1.6347716e-06   7.2215499e-08
 -9.9349418e-06   4.7856047e-10
 -8.5748316e-06   4.2428425e-09
 -6.6936604e-04   5.5689338e-09
  2.2015318e-05   8.6694794e-09
 -5.3936415e-05   3.1068785e-12
 -1.1230161e-05   5.2125426e-11
  1.3164934e-04   5.4883529e-09
 -3.5990453e-07   3.3345468e-14
 -6.9779882e-05   6.1102807e-12
  1.4150180e-05   3.5579026e-14
 -5.3265512e-06   7.1775533e-12
  1.3735798e-06   3.2271702e-10
  3.3336980e-06   2.3642036e-11
 -7.9462325e-06   3.8456696e-11
 -1.0064611e-05   4.6804565e-09
  8.1334483e-06   7.2382048e-12
 -5.3878953e-06   1.7397781e-07
  1.4011295e-03   2.8071737e-10
  6.6915391e-07   1.9959529e-12
 -2.4080716e-06   6.3015869e-13
  5.6266681e-06   9.6122360e-11
 -1.2394385e-06   1.2027888e-10
  3.8044451e-05   3.8697772e-13
  2.8872708e-05   3.5881331e-07
 -1.1135573e-06   1.5072381e-08
  1.4856079e-05   8.3065870e-15
  1.3198736e-03   1.0612921e-09
 -4.3498831e-06   4.2568180e-10
 -1.4779805e-05   2.5835152e-07
  4.7411395e-06   6.3539178e-09
 -9.8201344e-06   7.2348681e-13
 -5.0748054e-05   2.7233074e-10
  4.8726721e-05   2.8983842e-09
 -1.8469753e-05   1.8598257e-11
 -1.3367678e-05   1.5751278e-08
  6.6424082e-06   1.3882677e-11
 -9.6212179e-06   2.1607998e-12
  1.0058903e-05   1.7355937e-08
  3.7573339e-04   3.9467362e-12
 -1.0424800e-05   1.1756190e-07
 -1.7997789e-05   1.3625385e-09
  6.5189309e-04   5.3396827e-12
  1.3268732e-05   8.2932935e-08
 -1.8620378e-06   3.7814601e-07
 -1.3790196e-06   3.1984965e-10
 -9.6455597e-06   3.6216616e-07
  1.4652936e-05   3.2974832e-09
 -4.4775665e-01   3.0406788e-09
 -4.0802024e-02   3.3863345e-13
  2.0457260e-06   7.6689158e-12
 -1.0879681e-06   2.5456575e-12
  5.4397993e-02   4.0730981e-11
 -4.1013919e-02   7.8168556e-09
  1.8874920e-05   5.1041930e-08
  3.8665712e-05   1.8044811e-07
  4.5750329e-07   7.5658715e-12
 -2.2647294e-01   1.8335750e-15
 -1.3672789e-04   2.1608608e-08
 -6.8912186e-06   2.4313433e-09
 -2.3605687e-06   2.1877772e-08
  4.3221194e-06   1.1819209e-10
 -1.6797443e-06   3.0548062e-09
 -3.6480975e-05   9.6302463e-12
  3.0092102e-05   6.9577638e-08
 -3.0920237e-05   2.0974146e-06
 -2.1486332e-01   1.0848034e-10
  3.7116732e-04   8.8269438e-08
 -5.3039385e-04   4.0020359e-10
  7.0123028e-06   1.1295749e-06
  1.0942541e-06   2.5866909e-08
 -1.6493726e-01   6.9551196e-09
 -5.1447921e-03   1.6003527e-08
  5.2186997e-06   3.6189398e-08
 -2.3414796e-06   2.8200198e-10
 -2.5625734e-06   1.8021709e-08
  1.9570481e-04   7.0296714e-14
  1.7514197e-03   2.1677022e-12
 -2.1453843e-01   8.1366146e-12
 -7.1583563e-06   6.5624005e-15
 -1.3125154e-05   7.4403010e-12
 -1.1451368e-06   5.5371757e-10
 -1.3548890e-04   5.8869937e-11
 -3.4139659e-05   7.9019555e-09
 -6.9169564e-06   8.7403777e-07
 -9.3366234e-06   3.4084005e-07
 -1.9551658e-04   6.4638017e-10
 -5.0869156e-02   1.5485281e-10
  8.4110681e-05   8.0016861e-08
 -5.4083393e-06   2.5761624e-08
 -4.1239924e-05   2.1759046e-12
 -3.8707340e-06   3.4757952e-10
 -9.5232344e-06   1.6427645e-15
 -3.9874612e-05   3.8165635e-10
  1.0754325e-05   1.7891806e-07
  2.0796274e-06   1.2660625e-12
  1.6934908e-05   8.7573548e-10
  3.7562945e-06   1.2623991e-10
  4.1749777e-06   1.0723825e-08
 -4.2604948e-05   5.6851950e-11
 -6.8017584e-06   9.0764064e-07
 -1.1503779e-03   4.9416201e-08
 -3.9873426e-05   1.4040705e-07
 -1.0286841e-05   4.4321378e-09
  2.7174450e-05   1.1547061e-06
  3.0628271e-05   1.9160718e-06
  1.7989934e-05   3.5029800e-08
 -8.4431187e-05   5.0943477e-08
  6.2949844e-02   8.3229907e-13
 -6.4579849e-06   1.3787378e-09
 -3.4630080e-05   1.0767251e-12
  5.8534201e-06   2.1690474e-13
 -1.2114429e-05   1.4588426e-11
  1.1479353e-02   1.4743913e-09
 -8.0257514e-06   3.8476193e-07
  1.6802996e-05   8.8295343e-10
  4.4813754e-05   1.7713333e-09
  1.8116243e-02   2.3248121e-17
  2.9021979e-03   1.0896916e-09
  9.9330291e-06   1.8087674e-07
 -3.2617695e-06   1.2783238e-09
  1.5207548e-05   4.3996815e-09
 -3.2419041e-06   6.9893478e-09
  2.0690575e-06   1.2941305e-10
  1.1782471e-05   4.1285074e-07
 -1.2372642e-05   1.8795682e-10
  2.4579876e-07   2.2728037e-09
 -2.9314837e-05   2.9443128e-13
  1.2443084e-06   1.5659639e-13
  2.2097014e-05   2.0321347e-12
  5.7407169e-06   2.3605974e-08
  1.8807974e-04   1.5493551e-07
  2.6335265e-05   1.4453384e-11
 -1.7532509e-06   5.3457777e-10
  4.4393823e-06   7.5164064e-07
  8.5886958e-04   1.7360381e-13
 -1.7918594e-05   4.0147810e-08
 -7.0847118e-06   2.4739676e-12
 -9.6317626e-07   3.2839555e-08
  1.2457252e-01   7.1458768e-13
 -6.5622808e-06   1.7461689e-08
 -9.2412997e-03   3.3680920e-14
  1.7696334e-04   4.4319149e-12
  2.7577798e-05   2.1417264e-07
 -3.1246248e-01   8.7089355e-12
 -3.2709619e-01   1.4354626e-12
 -7.7028251e-01   2.3035233e-10
  1.1439960e+00   2.8383865e-10
  1.4760750e-06   2.1284645e-14
  1.3663217e-05   4.5043266e-10
 -7.2822229e-05   1.2048858e-11
 -7.6016627e-06   3.0955545e-07
 -2.7653050e-01   3.5636346e-13
  1.6015927e-05   7.5235064e-08
  1.0196543e-01   1.5964039e-09
 -1.0953828e-05   1.9870830e-12
  7.8512698e-01   3.6376727e-10
 -4.4012807e-02   7.3004866e-11
  5.7165283e-01   2.1202854e-11
 -1.4637083e-05   2.2052740e-07
  1.1680967e-07   1.3990903e-09
 -3.4188208e-01   4.6502326e-13
 -3.1551412e-05   2.9772595e-08
 -2.2461390e-06   4.5798729e-12
  4.7307235e-01   9.7502062e-10
 -8.6699627e-02   1.0130967e-09
  3.3687130e-02   1.3471774e-12
  4.5717171e-01   1.8442895e-15
 -1.8193133e-07   1.2237463e-09
  5.2651912e-01   1.0812377e-08
 -4.2442841e-07   9.6420401e-08
  4.9980563e-01   1.6186533e-08
 -1.6594215e-05   7.7942772e-09
 -5.8197315e-06   8.9157834e-07
 -1.3999183e+00   1.0844383e-08