160  
19   

1    
  0.0100000000000000   0.0000000000000000   0.0000000000000000
  -0.0352445147    0.0000031513    0.0068251844
   0.0025304103    0.0000032449   -0.0002430650
  -0.0001931798    0.0000013525    0.0000166703
   0.0001940570    0.0000014447   -0.0000768167
  -0.0002136013    0.0000032220   -0.0000774614
   0.0001992623    0.0000031872   -0.0000337837
   0.0000122056    0.0000013916   -0.0000723514
   0.0000254898    0.0000014243   -0.0000191832
  -0.0013657820    0.0005204460    0.0005806661
   0.0006417787   -0.0000800503   -0.0000434211
  -0.0013658530   -0.0005288984    0.0005806904
   0.0006416118    0.0000720251   -0.0000433272
  -0.0001296730    0.0000818462   -0.0000663373
   0.0000899568   -0.0000203921    0.0000448547
  -0.0001296420   -0.0000899463   -0.0000663703
   0.0000899946    0.0000124180    0.0000448843
   0.0014392824    0.0000030579    0.0022591617
   0.0014410556    0.0000031568   -0.0022321580
   0.0000102904    0.0000026595    0.0001215532
   0.0000072550    0.0000014861   -0.0000521858
   0.0006810927    0.0000030823   -0.0023857141
   0.0006579927    0.0000031540    0.0020435862
   0.0000023597    0.0000014577   -0.0000598948
   0.0000012943    0.0000015044    0.0001369630
   0.0001322414   -0.0005574576    0.0005046473
   0.0002446644    0.0004227672   -0.0004360049
   0.0001314917    0.0005486354    0.0005044104
   0.0002446871   -0.0004307767   -0.0004361032
   0.0001342526   -0.0004282747   -0.0005734113
   0.0002410510    0.0003939919    0.0003403069
   0.0001342023    0.0004200732   -0.0005734275
   0.0002411555   -0.0004021243    0.0003402104
  -0.0000543976   -0.0009289597   -0.0000964218
   0.0000303861    0.0009365907    0.0001428866
   0.0058084480    0.0096232651    0.0006947094
   0.0043398413   -0.0049479543    0.0003474831
  -0.0000747519   -0.0000603783   -0.0000300065
  -0.0000309832    0.0001631306   -0.0000037369
  -0.0000710954    0.0001320368   -0.0000180727
   0.0003467745   -0.0001456663   -0.0002763160
   0.0058084518   -0.0096235900    0.0006947598
   0.0043398503    0.0049476022    0.0003475210
  -0.0000543922    0.0009290697   -0.0000963658
   0.0000303460   -0.0009364696    0.0001430047
  -0.0000711091   -0.0001324227   -0.0000180925
   0.0003467923    0.0001451966   -0.0002763902
  -0.0000747176    0.0000604370   -0.0000300347
  -0.0000309337   -0.0001630487   -0.0000036784
  -0.0002727448    0.0001864310   -0.0000367653
   0.0003469137   -0.0000444647    0.0000466212
  -0.0069167059   -0.0010018787   -0.0021699449
   0.0019270427    0.0000222924    0.0003288132
  -0.0003671890   -0.0001693313    0.0000060120
   0.0004043182   -0.0000474586    0.0000328826
  -0.0040548173   -0.0014215423   -0.0007701453
   0.0019620086    0.0000509436    0.0000173261
  -0.0069166638    0.0010014549   -0.0021699039
   0.0019270706   -0.0000227215    0.0003288441
  -0.0002727605   -0.0001864300   -0.0000368147
   0.0003468984    0.0000444928    0.0000465285
  -0.0040547905    0.0014212534   -0.0007701551
   0.0019619785   -0.0000513422    0.0000173597
  -0.0003672364    0.0001694260    0.0000058874
   0.0004042520    0.0000474529    0.0000328216
  -0.0000825204    0.0000438184   -0.0000473127
   0.0001152098   -0.0000448186   -0.0000146531
  -0.0001950451   -0.0000614482   -0.0000894870
   0.0000798247    0.0000955237    0.0006460342
  -0.0002434122    0.0001275678    0.0001908818
   0.0002760678   -0.0001521660   -0.0001953621
  -0.0015231327   -0.0007937080    0.0012636706
   0.0005618527    0.0013335410   -0.0017418661
  -0.0001950632    0.0000621381   -0.0000895021
   0.0000798284   -0.0000948362    0.0006460247
  -0.0000825274   -0.0000431384   -0.0000473675
   0.0001151996    0.0000455166   -0.0000146733
  -0.0015231390    0.0007944045    0.0012636487
   0.0005618467   -0.0013328445   -0.0017418790
  -0.0002434084   -0.0001268651    0.0001908669
   0.0002760591    0.0001528599   -0.0001953784
   0.0042781130    0.0000660609   -0.0014396583
  -0.0016186191    0.0003602979    0.0011351923
   0.0002432901    0.0001322673   -0.0001994880
  -0.0002551747   -0.0000762923    0.0001862501
   0.0004749519    0.0001035064    0.0001017028
  -0.0004129552    0.0001015540    0.0000584720
   0.0000493354    0.0000376644    0.0000267723
  -0.0001163351   -0.0000063408    0.0000006834
   0.0042781157   -0.0000654807   -0.0014396473
  -0.0016186117   -0.0003597052    0.0011352038
   0.0002432965   -0.0001316762   -0.0001994686
  -0.0002551870    0.0000768837    0.0001862580
   0.0004749754   -0.0001029210    0.0001017155
  -0.0004129281   -0.0001010231    0.0000584701
   0.0000493452   -0.0000370873    0.0000267850
  -0.0001163007    0.0000069300    0.0000006752
  -0.0019394439   -0.0004496356   -0.0013417413
   0.0059554499   -0.0043415970   -0.0018417869
  -0.0002631083    0.0001390773   -0.0001750651
   0.0001834499   -0.0001141841    0.0001164051
  -0.0002636208   -0.0000540789    0.0000566839
   0.0003609454    0.0000465073    0.0001260976
  -0.0000722838    0.0000125665   -0.0000171729
   0.0001001763    0.0000702416    0.0000710598
  -0.0019394408    0.0004502252   -0.0013417556
   0.0059554561    0.0043421772   -0.0018417902
  -0.0002631070   -0.0001384896   -0.0001750806
   0.0001834497    0.0001147743    0.0001163950
  -0.0002636198    0.0000546905    0.0000566362
   0.0003609908   -0.0000459241    0.0001261049
  -0.0000722829   -0.0000119846   -0.0000171783
   0.0001001845   -0.0000696531    0.0000710461
   0.0001716222   -0.0000619182    0.0001024524
  -0.0000826725   -0.0000421632   -0.0000316688
   0.0006865214    0.0001019035    0.0000354424
  -0.0003353398   -0.0000248411   -0.0000679417
   0.0003160999    0.0000544902    0.0001105604
  -0.0003109817   -0.0001347707   -0.0001972780
   0.0027378719   -0.0009015677    0.0021688099
  -0.0015208260    0.0004612089   -0.0010573056
   0.0006865220   -0.0001012259    0.0000354745
  -0.0003353358    0.0000255319   -0.0000679443
   0.0001716143    0.0000626129    0.0001024750
  -0.0000826499    0.0000428336   -0.0000316399
   0.0027377883    0.0009022532    0.0021687451
  -0.0015208307   -0.0004605200   -0.0010573010
   0.0003160890   -0.0000538001    0.0001105757
  -0.0003109897    0.0001354523   -0.0001972472
   0.0000805404    0.0000003667   -0.0001974965
  -0.0000877404    0.0000003614    0.0002323138
   0.0000002264    0.0000003486   -0.0000206042
  -0.0000037185    0.0000003425    0.0000008141
   0.0089864740    0.0000003667   -0.0018884898
  -0.0038777591    0.0000003712    0.0002303236
  -0.0000000327    0.0000003473   -0.0000032335
  -0.0000552927    0.0000003504   -0.0000569662
  -0.0002566583    0.0017902245   -0.0000867486
  -0.0002498226   -0.0017274782   -0.0000045339
  -0.0002566649   -0.0017896200   -0.0000867568
  -0.0002498268    0.0017280887   -0.0000045374
   0.0000551786    0.0000404524    0.0001010824
  -0.0000063836   -0.0001853401   -0.0000134570
   0.0000552187   -0.0000398724    0.0001010637
  -0.0000063807    0.0001859436   -0.0000134757
   0.0013576537    0.0000003688    0.0007081135
  -0.0005539023    0.0000003696   -0.0000799574
   0.0000926575   -0.0000001925    0.0000310435
  -0.0001216869    0.0000003493   -0.0000003153
   0.0012993620    0.0000003382    0.0014071893
  -0.0006011403    0.0000003680   -0.0000182337
   0.0000901773    0.0000003717    0.0000225987
  -0.0001320349    0.0000003490    0.0000132633
   0.0008155935   -0.0003357599    0.0000734354
  -0.0002897678    0.0000679077   -0.0000780063
   0.0008155979    0.0003363519    0.0000734378
  -0.0002897687   -0.0000673078   -0.0000779987
   0.0005866131    0.0001728376    0.0002586631
  -0.0003334861    0.0000847476   -0.0000216271
   0.0005866173   -0.0001722394    0.0002586817
  -0.0003334673   -0.0000841658   -0.0000216053

1    
 -0.0100000000000000   0.0000000000000000   0.0000000000000000
   0.0346110666    0.0000030807   -0.0071182828
  -0.0025311229    0.0000032130    0.0001702991
   0.0002061449    0.0000012872   -0.0000925003
  -0.0001803628    0.0000012530    0.0000007888
   0.0002257697    0.0000031955    0.0000097719
  -0.0001860711    0.0000030713   -0.0000393652
   0.0000013038    0.0000015799   -0.0000015164
  -0.0000120395    0.0000014523   -0.0000544861
   0.0013566168   -0.0005180926   -0.0005070382
  -0.0006556407    0.0000776129    0.0001184388
   0.0013564695    0.0005098088   -0.0005071452
  -0.0006557095   -0.0000857837    0.0001186375
   0.0001185928   -0.0000825392    0.0001381457
  -0.0001025257    0.0000202640    0.0000270772
   0.0001185937    0.0000744318    0.0001381493
  -0.0001025038   -0.0000283732    0.0000271199
  -0.0014107669    0.0000029835   -0.0021635247
  -0.0014365012    0.0000030504    0.0023301325
   0.0000082610    0.0000014734   -0.0000450983
   0.0000048874    0.0000013752    0.0001292166
  -0.0006637248    0.0000030370    0.0024434290
  -0.0006388471    0.0000029366   -0.0019874415
   0.0000147662    0.0000015553    0.0001318047
   0.0000114497    0.0000014478   -0.0000646169
  -0.0001438340    0.0005587866   -0.0005778838
  -0.0002569879   -0.0004251187    0.0003662600
  -0.0001438719   -0.0005667835   -0.0005779770
  -0.0002569521    0.0004171520    0.0003662451
  -0.0001471303    0.0004298262    0.0004965136
  -0.0002539875   -0.0003977646   -0.0004215505
  -0.0001472687   -0.0004379973    0.0004965418
  -0.0002540856    0.0003896770   -0.0004216577
   0.0000536947    0.0009312568    0.0000968273
  -0.0000292801   -0.0009383595   -0.0001430580
  -0.0057685064   -0.0095207682   -0.0006901065
  -0.0043535708    0.0050030764   -0.0003269061
   0.0000743231    0.0000618185    0.0000299229
   0.0000321421   -0.0001618918    0.0000036008
   0.0000660559   -0.0001350672    0.0000193062
  -0.0003393828    0.0001422512    0.0002770005
  -0.0057684052    0.0095204406   -0.0006900851
  -0.0043535928   -0.0050034869   -0.0003267788
   0.0000537111   -0.0009311053    0.0000969103
  -0.0000292028    0.0009384867   -0.0001429678
   0.0000660646    0.0001346822    0.0000192897
  -0.0003394493   -0.0001426078    0.0002769862
   0.0000743359   -0.0000617838    0.0000299642
   0.0000321128    0.0001619507    0.0000036065
   0.0002718880   -0.0001863131    0.0000348904
  -0.0003483828    0.0000437961   -0.0000456411
   0.0069219318    0.0009850267    0.0021613299
  -0.0019307831   -0.0000238334   -0.0003219073
   0.0003664681    0.0001707286   -0.0000097487
  -0.0004055734    0.0000463864   -0.0000335330
   0.0040663338    0.0013800824    0.0007764304
  -0.0019648532   -0.0000525012   -0.0000259236
   0.0069217031   -0.0009853399    0.0021613818
  -0.0019308368    0.0000234944   -0.0003219117
   0.0002718878    0.0001863316    0.0000349022
  -0.0003484330   -0.0000437270   -0.0000456829
   0.0040661804   -0.0013802303    0.0007764549
  -0.0019648594    0.0000520939   -0.0000259415
   0.0003664617   -0.0001707195   -0.0000097819
  -0.0004056329   -0.0000463374   -0.0000335708
   0.0001220505   -0.0000924906    0.0000376942
  -0.0000752699   -0.0000040165    0.0000054218
   0.0002353197    0.0000120158    0.0000784318
  -0.0000418262   -0.0001445699   -0.0006545183
   0.0002825823   -0.0001759850   -0.0002001571
  -0.0002372296    0.0001036268    0.0001874801
   0.0015605520    0.0007395853   -0.0012728677
  -0.0005301466   -0.0013926663    0.0017486881
   0.0002353222   -0.0000113095    0.0000784041
  -0.0000416701    0.0001452825   -0.0006546034
   0.0001220385    0.0000931911    0.0000376815
  -0.0000752764    0.0000046973    0.0000053569
   0.0015605484   -0.0007388811   -0.0012728841
  -0.0005301545    0.0013933588    0.0017486737
   0.0002825699    0.0001766838   -0.0002001762
  -0.0002372384   -0.0001029282    0.0001874665
  -0.0042523281    0.0000397874    0.0014796110
   0.0015836889   -0.0003147386   -0.0011322732
  -0.0002814216   -0.0000825304    0.0002089234
   0.0002167738    0.0001264552   -0.0001775877
  -0.0005073214   -0.0000541162   -0.0000949167
   0.0003735386   -0.0000522924   -0.0000471038
  -0.0000873066    0.0000119296   -0.0000176054
   0.0000775627    0.0000566504    0.0000084048
  -0.0042523289   -0.0000391945    0.0014796231
   0.0015837142    0.0003153331   -0.0011322631
  -0.0002814151    0.0000831171    0.0002089392
   0.0002167802   -0.0001258641   -0.0001775718
  -0.0005073147    0.0000547051   -0.0000949149
   0.0003735476    0.0000528944   -0.0000471090
  -0.0000873042   -0.0000113314   -0.0000175877
   0.0000775715   -0.0000560562    0.0000084169
   0.0018989504    0.0004945245    0.0013303731
  -0.0060952586    0.0045471623    0.0019208976
   0.0002249898   -0.0000890770    0.0001662869
  -0.0002221393    0.0001644289   -0.0001242646
   0.0002271123    0.0001032158   -0.0000638506
  -0.0004060975    0.0000079092   -0.0001383218
   0.0000342345    0.0000374281    0.0000084301
  -0.0001392673   -0.0000200114   -0.0000794546
   0.0018989592   -0.0004939260    0.0013303713
  -0.0060952525   -0.0045465700    0.0019208942
   0.0002249924    0.0000896571    0.0001662747
  -0.0002221378   -0.0001638451   -0.0001242803
   0.0002271107   -0.0001026351   -0.0000638557
  -0.0004060901   -0.0000073183   -0.0001383344
   0.0000342254   -0.0000368395    0.0000084241
  -0.0001392592    0.0000205974   -0.0000794724
  -0.0001336178    0.0000135231   -0.0000935385
   0.0001205919   -0.0000062078    0.0000395640
  -0.0006485160   -0.0001506698   -0.0000261612
   0.0003721410   -0.0000238356    0.0000747483
  -0.0002781674   -0.0001032869   -0.0001004945
   0.0003488078    0.0000861791    0.0002056737
  -0.0026587067    0.0008640756   -0.0021579012
   0.0015622824   -0.0005144930    0.0010689209
  -0.0006485195    0.0001513538   -0.0000261512
   0.0003721358    0.0000245280    0.0000747620
  -0.0001336292   -0.0000128268   -0.0000935179
   0.0001205975    0.0000069070    0.0000395624
  -0.0026587181   -0.0008633823   -0.0021578987
   0.0015622754    0.0005151595    0.0010689379
  -0.0002781834    0.0001039837   -0.0001004830
   0.0003487974   -0.0000854981    0.0002056804
  -0.0001147972    0.0000003706    0.0001581135
   0.0000500046    0.0000003668   -0.0002704230
  -0.0000358146    0.0000003517   -0.0000165440
  -0.0000320929    0.0000003415   -0.0000370153
  -0.0085132857    0.0000003642    0.0017719921
   0.0038677656    0.0000003611   -0.0002679052
  -0.0000360238    0.0000003408   -0.0000337008
   0.0000193922    0.0000003465    0.0000205337
   0.0002951294   -0.0017882216    0.0001242060
   0.0002836400    0.0017292659    0.0000379690
   0.0002951304    0.0017888279    0.0001241932
   0.0002836322   -0.0017286615    0.0000379676
  -0.0000184396   -0.0000410493   -0.0000657184
   0.0000410514    0.0001846289    0.0000491843
  -0.0000184590    0.0000416432   -0.0000657216
   0.0000410505   -0.0001840264    0.0000491707
  -0.0013993815    0.0000003552   -0.0006718585
   0.0005178220    0.0000003649    0.0001126176
  -0.0001280730    0.0000003465    0.0000050187
   0.0000866353    0.0000003469    0.0000347821
  -0.0013236401    0.0000003699   -0.0013543479
   0.0005647866    0.0000003642    0.0000543031
  -0.0001255251    0.0000003453    0.0000145509
   0.0000968153    0.0000003472    0.0000215869
  -0.0007780044    0.0003389080   -0.0001112490
   0.0003247067   -0.0000644739    0.0000425658
  -0.0007780132   -0.0003382921   -0.0001112384
   0.0003247023    0.0000650745    0.0000425765
  -0.0005501602   -0.0001760899   -0.0002923679
   0.0003689105   -0.0000814346   -0.0000107696
  -0.0005501634    0.0001766928   -0.0002923597
   0.0003689083    0.0000820422   -0.0000107566

1    
  0.0000000000000000   0.0100000000000000   0.0000000000000000
   0.0000521159   -0.0343810413   -0.0002194184
   0.0000044004   -0.0010181157   -0.0000373665
   0.0000072933    0.0005885512   -0.0000370873
   0.0000070736    0.0004413424   -0.0000375644
   0.0000069864   -0.0009319177   -0.0000336119
   0.0000079976   -0.0005756507   -0.0000361742
   0.0000070132    0.0004527536   -0.0000363085
   0.0000071383    0.0003484328   -0.0000364096
   0.0005044601    0.0029878411    0.0000493802
  -0.0000849622    0.0002637408    0.0000337565
  -0.0005204360    0.0030066621    0.0000245750
   0.0000687571    0.0002558800    0.0000408605
   0.0000770065    0.0002480169    0.0000159812
  -0.0000280931    0.0001271073    0.0000224447
  -0.0000891512    0.0002397927    0.0000527805
   0.0000126238    0.0001199525    0.0000494319
   0.0000098455   -0.0022818198    0.0000354439
   0.0000057065   -0.0022905032    0.0000395386
   0.0000099960    0.0004495987    0.0000381650
   0.0000065576    0.0004508137    0.0000380004
   0.0000064372   -0.0012794949    0.0000394923
   0.0000104738   -0.0012866809    0.0000366193
   0.0000091271    0.0004577122    0.0000351892
   0.0000064005    0.0004605776    0.0000354434
  -0.0004380489    0.0008477874   -0.0005870745
   0.0003914549    0.0005061196   -0.0003727906
   0.0004221698    0.0008392772    0.0005152079
  -0.0004056829    0.0004984197    0.0003022024
  -0.0005672305    0.0008477030    0.0006444645
   0.0004160810    0.0004999068    0.0003176320
   0.0005541635    0.0008434235   -0.0007229908
  -0.0004336596    0.0004958116   -0.0003981975
  -0.0002399098    0.0017575248    0.0001318520
   0.0002171316    0.0015420787    0.0001042394
   0.0090506576   -0.0005612170   -0.0009675696
  -0.0058119465   -0.0008957481   -0.0017421738
  -0.0001922309    0.0007701284    0.0000346958
   0.0002032513    0.0007002642    0.0000284706
   0.0009183900   -0.0008213756   -0.0000262278
  -0.0006594388   -0.0007411042    0.0003362588
  -0.0089796923   -0.0005625389    0.0009669061
   0.0057895405   -0.0008889786    0.0017463476
   0.0002399736    0.0017555131   -0.0001311159
  -0.0002174157    0.0015428163   -0.0001034101
  -0.0009183422   -0.0008187219    0.0000269200
   0.0006618371   -0.0007379337   -0.0003361442
   0.0001923798    0.0007688541   -0.0000351512
  -0.0002036437    0.0006991026   -0.0000288749
   0.0000525249    0.0017229932   -0.0003693188
  -0.0000546955    0.0006928313   -0.0002105425
  -0.0004961617    0.0004133419    0.0076125233
  -0.0000945115   -0.0005520159    0.0009607736
   0.0000638564    0.0015947499    0.0001112906
  -0.0000610337    0.0007306973    0.0001757766
  -0.0016289932   -0.0024667266   -0.0061533789
   0.0002003311   -0.0008482794   -0.0007001412
   0.0004937086    0.0004036600   -0.0075770481
   0.0000900445   -0.0005501714   -0.0009599990
  -0.0000538715    0.0017212964    0.0003672502
   0.0000528413    0.0006910791    0.0002111132
   0.0016222232   -0.0024175301    0.0061190078
  -0.0002049782   -0.0008443474    0.0006972087
  -0.0000651982    0.0015949033   -0.0001151022
   0.0000590735    0.0007294110   -0.0001766919
   0.0001331915   -0.0003055186    0.0000570547
  -0.0001484724   -0.0003369297    0.0001627293
  -0.0001172071    0.0002202317   -0.0001143228
   0.0008259286    0.0001235402   -0.0012519342
   0.0002460836   -0.0003838350   -0.0001522420
  -0.0000532754   -0.0004613341   -0.0000740884
  -0.0010888134    0.0003846671    0.0007112682
   0.0013998356   -0.0006529126    0.0013905842
   0.0001550702    0.0002708156    0.0001047597
  -0.0007856834    0.0001741488    0.0012423014
  -0.0000944074   -0.0002556055   -0.0000660346
   0.0001879796   -0.0002868398   -0.0001715287
   0.0011240869    0.0004313697   -0.0007206949
  -0.0013500483   -0.0006019307   -0.0013852600
  -0.0002080295   -0.0003340147    0.0001434993
   0.0000925676   -0.0004118731    0.0000658885
  -0.0001307058    0.0015962925    0.0003033802
   0.0011167130    0.0004406957   -0.0006734084
   0.0000086964   -0.0003953703    0.0000250200
  -0.0001264305   -0.0002761465    0.0001187148
  -0.0005194697    0.0005875886    0.0008924792
   0.0000042103    0.0003177353    0.0000608086
   0.0000867272   -0.0003020581   -0.0001266491
  -0.0000417369   -0.0002353546   -0.0000389230
   0.0001478200    0.0014540309   -0.0002250211
  -0.0011531344    0.0003916735    0.0006802617
  -0.0000480906   -0.0004447496   -0.0000156370
   0.0000877514   -0.0003262377   -0.0001105139
   0.0004821511    0.0005342443   -0.0008786039
  -0.0000421856    0.0002666456   -0.0000500465
  -0.0001261808   -0.0003519014    0.0001366237
   0.0000025563   -0.0002846840    0.0000473414
  -0.0010198489    0.0005415310   -0.0003645356
  -0.0036994635    0.0069098829    0.0041194076
   0.0001718916   -0.0003226294    0.0001394890
  -0.0000749166   -0.0004722311    0.0000500130
  -0.0001567002    0.0003017209    0.0000711993
   0.0002520396    0.0006202138    0.0004941044
   0.0000219294   -0.0001962307   -0.0000227431
  -0.0001638217   -0.0003132451   -0.0001563117
   0.0009797651    0.0004892311    0.0003597729
   0.0034842251    0.0066712408   -0.0039725897
  -0.0002113653   -0.0003723033   -0.0001484753
   0.0000360424   -0.0005220877   -0.0000581377
   0.0001173663    0.0002514250   -0.0000801711
  -0.0002942327    0.0005658658   -0.0005009646
  -0.0000611998   -0.0002459271    0.0000138800
   0.0001246444   -0.0003637361    0.0001486391
   0.0001568627   -0.0003747294    0.0002016614
  -0.0000003116   -0.0002223431    0.0000424710
  -0.0004541414    0.0001615591   -0.0011884575
   0.0001031589    0.0001331903   -0.0001771863
   0.0001144552   -0.0005823072   -0.0000943217
  -0.0001349603   -0.0003468543   -0.0001364257
  -0.0001092474    0.0019511832    0.0010207377
   0.0007382430    0.0002791059    0.0004816575
   0.0004930081    0.0002114475    0.0011962405
  -0.0000655121    0.0001826204    0.0001854650
  -0.0001190390   -0.0003252966   -0.0001925857
   0.0000386404   -0.0001728755   -0.0000339290
   0.0002167536    0.0018499061   -0.0010876588
  -0.0006974224    0.0003275768   -0.0004724101
  -0.0000778422   -0.0005343085    0.0001042749
   0.0001730110   -0.0002971800    0.0001447628
  -0.0000179905    0.0013537785   -0.0000191022
  -0.0000179008    0.0011703549   -0.0000188748
  -0.0000177989   -0.0008036596   -0.0000180184
  -0.0000177177   -0.0007750552   -0.0000177118
  -0.0000306448    0.0063437751   -0.0000088053
  -0.0000215525    0.0039944802   -0.0000146621
  -0.0000180819   -0.0011891207   -0.0000180687
  -0.0000175550   -0.0010876609   -0.0000178832
   0.0005386728   -0.0013949389    0.0000855013
  -0.0004799702   -0.0012188109   -0.0000523014
  -0.0005054745   -0.0013907445   -0.0000496462
   0.0005169100   -0.0012158767    0.0000852110
   0.0001092901   -0.0002297314   -0.0001082162
  -0.0000737509   -0.0002030702   -0.0000204964
  -0.0000743890   -0.0002281359    0.0001430651
   0.0001076980   -0.0002021911    0.0000555387
  -0.0000191843    0.0043794862    0.0000181356
  -0.0000177468    0.0012657168    0.0000172134
  -0.0000177922   -0.0011507923    0.0000180177
  -0.0000174273   -0.0007684381    0.0000169476
  -0.0000150975    0.0052423568    0.0000269377
  -0.0000169326    0.0012196620    0.0000164471
  -0.0000176839   -0.0011222644    0.0000182890
  -0.0000175234   -0.0008065380    0.0000171880
   0.0000401169   -0.0014819654    0.0005275149
   0.0000032935   -0.0002421003    0.0000892146
  -0.0000042163   -0.0014798887   -0.0005662850
   0.0000311014   -0.0002416545   -0.0001227704
  -0.0001818519   -0.0010359952   -0.0005032478
  -0.0000212816   -0.0001765809   -0.0000723064
   0.0002172200   -0.0010350232    0.0004705871
   0.0000560350   -0.0001757289    0.0000385486

1    
  0.0000000000000000   0.0000000000000000   0.0100000000000000
   0.0069320462    0.0000030160   -0.0352082429
  -0.0002021925    0.0000031286   -0.0002584891
   0.0000609844    0.0000014704   -0.0002637204
  -0.0000314872    0.0000014115   -0.0000282236
  -0.0000351632    0.0000030856    0.0026700523
   0.0000099153    0.0000031143    0.0001553985
  -0.0000291040    0.0000014852    0.0001682355
   0.0000244642    0.0000014373   -0.0000189675
   0.0005319199    0.0000017270   -0.0014218444
  -0.0000854460   -0.0000061997   -0.0000400004
   0.0005317362   -0.0000099626   -0.0014220741
  -0.0000854655   -0.0000015711   -0.0000399578
  -0.0001063539   -0.0000205291    0.0007157790
   0.0000027617   -0.0000125798    0.0001371453
  -0.0001064132    0.0000125567    0.0007156341
   0.0000026607    0.0000045487    0.0001371669
   0.0022917926    0.0000031016    0.0012121029
  -0.0022185217    0.0000031146    0.0012080960
   0.0000984226    0.0000014566    0.0000540211
  -0.0000776718    0.0000014999    0.0000538202
  -0.0020084257    0.0000029733    0.0009414566
   0.0024176104    0.0000030495    0.0009438054
  -0.0000910573    0.0000014535    0.0000212607
   0.0001022339    0.0000013656    0.0000224049
   0.0005303876   -0.0006824639    0.0003160658
  -0.0003901179   -0.0003601125    0.0000843636
   0.0005303684    0.0006743213    0.0003160107
  -0.0003899977    0.0003520767    0.0000843525
  -0.0005471190    0.0005498191    0.0003066404
   0.0003930206    0.0003350004    0.0000794711
  -0.0005469953   -0.0005578312    0.0003067419
   0.0003930736   -0.0003429395    0.0000795361
  -0.0000812472    0.0000933358   -0.0003320186
   0.0000287505   -0.0002466699   -0.0003713837
  -0.0005860022   -0.0002419410   -0.0068327266
  -0.0019587265    0.0004944042   -0.0047829533
   0.0000206806    0.0000188442    0.0003974529
   0.0000300116    0.0000184346    0.0003851574
   0.0000041063   -0.0001535270    0.0020445743
   0.0003664521   -0.0001648010    0.0019401976
  -0.0005859896    0.0002415654   -0.0068326827
  -0.0019587178   -0.0004947644   -0.0047829242
  -0.0000812416   -0.0000932668   -0.0003319554
   0.0000287138    0.0002467758   -0.0003713481
   0.0000041026    0.0001532068    0.0020445544
   0.0003664730    0.0001644404    0.0019401845
   0.0000206793   -0.0000188499    0.0003974385
   0.0000300048   -0.0000183826    0.0003851661
   0.0000021560   -0.0009766272    0.0001559946
  -0.0000180054   -0.0000932038   -0.0000354735
  -0.0008928621    0.0066227386    0.0050291938
  -0.0001628708    0.0002463429    0.0002281166
   0.0000741635    0.0009237510   -0.0001215410
  -0.0000320126    0.0000797120   -0.0000709090
   0.0005501673   -0.0079311412    0.0049943590
  -0.0001429349   -0.0001164602   -0.0000333365
  -0.0008928726   -0.0066231158    0.0050291739
  -0.0001628890   -0.0002467059    0.0002280784
   0.0000021777    0.0009766943    0.0001559386
  -0.0000179825    0.0000932716   -0.0000355481
   0.0005501170    0.0079308122    0.0049942523
  -0.0001429612    0.0001161744   -0.0000333411
   0.0000741329   -0.0009237181   -0.0001216529
  -0.0000320599   -0.0000796915   -0.0000709855
  -0.0000270240    0.0000492279   -0.0001314069
   0.0002441925    0.0000884498   -0.0002898510
   0.0000166765   -0.0000608799   -0.0003631740
   0.0012207754   -0.0005677568   -0.0014765124
   0.0000402627   -0.0000458051    0.0001366528
  -0.0002115718   -0.0001296068    0.0002864058
   0.0003145580   -0.0000242881    0.0002642322
  -0.0021883240    0.0013067651    0.0014573813
   0.0000166690    0.0000615652   -0.0003631862
   0.0012207686    0.0005684551   -0.0014764918
  -0.0000270289   -0.0000485418   -0.0001314212
   0.0002441817   -0.0000877731   -0.0002898657
   0.0003145555    0.0000249711    0.0002642134
  -0.0021883282   -0.0013060823    0.0014573618
   0.0000402517    0.0000464919    0.0001366403
  -0.0002115994    0.0001302808    0.0002863893
  -0.0010754680   -0.0001594846    0.0036669578
   0.0004841616   -0.0000216024    0.0001740091
  -0.0002162521    0.0001803406    0.0002440727
  -0.0000056075    0.0000471932    0.0000453733
   0.0013886189    0.0005031183   -0.0018329530
  -0.0001397717    0.0001611940   -0.0002800447
   0.0001699256   -0.0001062610   -0.0002311378
  -0.0000310797   -0.0000024756   -0.0000566297
  -0.0010754673    0.0001600489    0.0036669646
   0.0004841527    0.0000221733    0.0001740130
  -0.0002162406   -0.0001797605    0.0002440894
  -0.0000055913   -0.0000466172    0.0000453831
   0.0013886189   -0.0005025247   -0.0018329061
  -0.0001397629   -0.0001606128   -0.0002800344
   0.0001699393    0.0001068310   -0.0002311157
  -0.0000310745    0.0000030505   -0.0000566127
   0.0000036090    0.0001591795    0.0006654582
  -0.0013477373    0.0034310622    0.0046584617
   0.0000706422   -0.0000262588    0.0000921247
   0.0000834395    0.0001511382    0.0002049130
   0.0000156867    0.0000650683   -0.0002458673
  -0.0013523110    0.0005762715   -0.0019972748
  -0.0000274410    0.0000318870   -0.0000431788
  -0.0002208298   -0.0000879782   -0.0002471214
   0.0000036256   -0.0001586035    0.0006654509
  -0.0013477219   -0.0034305097    0.0046584445
   0.0000706473    0.0000268289    0.0000921105
   0.0000834435   -0.0001505713    0.0002048956
   0.0000158100   -0.0000646039   -0.0002457930
  -0.0013523066   -0.0005756955   -0.0019972765
  -0.0000274355   -0.0000313073   -0.0000431948
  -0.0002208206    0.0000885497   -0.0002471271
  -0.0001550931    0.0000885949   -0.0002941585
  -0.0000127077   -0.0000156639   -0.0000764503
  -0.0010260735   -0.0004295658   -0.0014991211
  -0.0000557245   -0.0000133183   -0.0002847787
   0.0001427900   -0.0001655329    0.0002576967
   0.0001132179    0.0000050194    0.0001595141
   0.0020584661    0.0008593648    0.0022723006
   0.0003361588   -0.0001459171    0.0005371352
  -0.0010260837    0.0004302464   -0.0014991111
  -0.0000557245    0.0000139824   -0.0002847670
  -0.0001551063   -0.0000879128   -0.0002941440
  -0.0000127150    0.0000163365   -0.0000764420
   0.0020584669   -0.0008586781    0.0022723098
   0.0003360279    0.0001466987    0.0005370650
   0.0001427870    0.0001662194    0.0002577059
   0.0001132063   -0.0000043447    0.0001595272
  -0.0000310699    0.0000003615   -0.0006568496
  -0.0000298309    0.0000003305   -0.0006687213
  -0.0000120371    0.0000003410   -0.0001293675
  -0.0000268575    0.0000003378   -0.0001309691
  -0.0011600739    0.0000003675    0.0020942651
  -0.0001445076    0.0000003544    0.0014306586
  -0.0000158154    0.0000003430    0.0001017951
  -0.0000085225    0.0000003394    0.0000971252
   0.0001154278    0.0000110147    0.0008210912
   0.0001526996    0.0005934322    0.0005833303