  20  160
1 1
     3.492779060446590     0.000000000000000    -0.697173358894664
    -0.000000000000000     3.438104132609460     0.000000000000000
    -0.684959087386487    -0.000000000000000     3.545953813303265
1 2
    -0.253076662079163     0.000000000000000     0.020668203159372
     0.000000000000000     0.101811566647508    -0.000000000000000
     0.020921214275231    -0.000000000000000     0.022064416371194
1 3
     0.019966235345365     0.000000000000000    -0.005458529948621
    -0.000000000000000    -0.058855116000783    -0.000000000000000
    -0.005465400969931    -0.000000000000000     0.022630148044905
1 4
    -0.018720990369628     0.000000000000000     0.003880272274704
     0.000000000000000    -0.044134240882944     0.000000000000000
     0.003794014066288     0.000000000000000    -0.000982010296520
1 5
     0.021968550828050     0.000000000000000     0.004361663369750
     0.000000000000000     0.093191770131160    -0.000000000000000
     0.004276372493828    -0.000000000000000    -0.270209638063121
1 6
    -0.019266671186345    -0.000000000000000    -0.000279071697802
     0.000000000000000     0.057565074318067     0.000000000000000
    -0.000306043420863    -0.000000000000000    -0.019122188230873
1 7
    -0.000545089863793    -0.000000000000000     0.003541751721156
     0.000000000000000    -0.045275357694817     0.000000000000000
     0.003522106960802     0.000000000000000    -0.020527714482009
1 8
    -0.001876462241623     0.000000000000000    -0.001765144313685
    -0.000000000000000    -0.034843277780361    -0.000000000000000
    -0.001816043465197    -0.000000000000000    -0.001776139814854
1 9
     0.136118034140336    -0.051931143845949    -0.054388496746616
    -0.051244805403657    -0.299725162262570    -0.001240260775504
    -0.053856968973978     0.000117723337495     0.146047270814631
1 10
    -0.064868519534382     0.007886801027157     0.008095615600808
     0.007685963409623    -0.025981040089404     0.000355200341269
     0.007864456545164     0.000558136951147     0.007779324161790
1 11
     0.136118034140336     0.051931143845949    -0.054388496746616
     0.051244805403657    -0.299725162262570     0.001240260775504
    -0.053856968973978    -0.000117723337495     0.146047270814631
1 12
    -0.064868519534382    -0.007886801027157     0.008095615600808
    -0.007685963409623    -0.025981040089404    -0.000355200341269
     0.007864456545164    -0.000558136951147     0.007779324161790
1 13
     0.012412535771590    -0.008219088535449     0.010225063965309
    -0.008307886279745    -0.024390480172094     0.001839966086311
     0.010165249238507     0.001992162863374    -0.068198026375988
1 14
    -0.009624522243260     0.002036180609242    -0.000888547816594
     0.002035845770869    -0.012352989013362     0.001349362214707
    -0.000921165145431     0.001221990622905    -0.010110176213050
1 15
     0.012412535771590     0.008219088535449     0.010225063965309
     0.008307886279745    -0.024390480172094    -0.001839966086311
     0.010165249238507    -0.001992162863374    -0.068198026375988
1 16
    -0.009624522243260    -0.002036180609242    -0.000888547816594
    -0.002035845770869    -0.012352989013362    -0.001349362214707
    -0.000921165145431    -0.001221990622905    -0.010110176213050
1 17
    -0.142502463219720    -0.000000000000000    -0.221134321021198
    -0.000000000000000     0.228181982834145    -0.000000000000000
    -0.227625451519404     0.000000000000000    -0.117277431975301
1 18
    -0.143877837026991    -0.000000000000000     0.228114526387281
     0.000000000000000     0.229050324596960    -0.000000000000000
     0.221651120729133    -0.000000000000000    -0.117178631094251
1 19
    -0.000101469053624    -0.000000000000000    -0.008332573917734
     0.000000000000000    -0.044959870458432     0.000000000000000
    -0.009004713253661    -0.000000000000000    -0.001609950731247
1 20
    -0.000118383844477    -0.000000000000000     0.009070118153943
    -0.000000000000000    -0.045081367746065    -0.000000000000000
     0.008337056645515    -0.000000000000000    -0.001541017984224
1 21
    -0.067240876050380     0.000000000000000     0.241457153602641
    -0.000000000000000     0.127949488776675     0.000000000000000
     0.202584152275703    -0.000000000000000    -0.090470043976747
1 22
    -0.064841989103072     0.000000000000000    -0.201551387354059
    -0.000000000000000     0.128668092474132     0.000000000000000
    -0.242007119098557    -0.000000000000000    -0.090794916005755
1 23
     0.000620326074135     0.000000000000000     0.009584974914597
     0.000000000000000    -0.045771216951069    -0.000000000000000
     0.009990499872534     0.000000000000000     0.001494256165251
1 24
     0.000507769295831    -0.000000000000000    -0.010078999294313
    -0.000000000000000    -0.046057755085498     0.000000000000000
    -0.009672152110206    -0.000000000000000     0.001397970425763
1 25
    -0.013785974986433     0.055791576153413    -0.054122961650881
     0.043010937179040    -0.084353231885376     0.055114121225474
    -0.053724026765769     0.068411291899511    -0.035393335808161
1 26
    -0.025082285998866    -0.042395365279699     0.040115330839696
    -0.039856890465001    -0.050226965147087     0.033749647458270
     0.038340475095564     0.035963556526130    -0.012124656845101
1 27
    -0.013785974986433    -0.055791576153413    -0.054122961650881
    -0.043010937179040    -0.084353231885376    -0.055114121225474
    -0.053724026765769    -0.068411291899511    -0.035393335808161
1 28
    -0.025082285998866     0.042395365279699     0.040115330839696
     0.039856890465001    -0.050226965147087    -0.033749647458270
     0.038340475095564    -0.035963556526130    -0.012124656845101
1 29
    -0.014071347535240     0.042904287893223     0.053497353547152
     0.056069698233325    -0.084556325742070    -0.068372769682165
     0.054197762813182    -0.054975840205903    -0.034522464255999
1 30
    -0.024756989743377    -0.039588944734056    -0.038093136843663
    -0.042487031907576    -0.049785920375142    -0.035791473384473
    -0.040116673448238    -0.033787374789710    -0.011968064884485
1 31
    -0.014071347535240    -0.042904287893223     0.053497353547152
    -0.056069698233325    -0.084556325742070     0.068372769682165
     0.054197762813182     0.054975840205903    -0.034522464255999
1 32
    -0.024756989743377     0.039588944734056    -0.038093136843663
     0.042487031907576    -0.049785920375142     0.035791473384473
    -0.040116673448238     0.033787374789710    -0.011968064884485
1 33
     0.005404888808751     0.093009783921469     0.009663129576265
     0.023994169004694    -0.175651894596750    -0.013148396082121
     0.008132401528875    -0.009306678058750     0.033250909798674
1 34
    -0.002980373553487    -0.093747664089042    -0.014297927998611
    -0.021727365303220    -0.154244750428843    -0.010382473779407
    -0.002916685823089     0.024792809433208     0.037192823226416
1 35
    -0.578845283180258    -0.957201597528011    -0.069241519377341
    -0.901517490477769     0.056187793291825     0.096723787947447
     0.058189308327095     0.022423574098951     0.683386684343780
1 36
    -0.434671378832582     0.497552992668437    -0.033717223503154
     0.580074350549362     0.089236338342215     0.174426070265363
     0.196507142327605    -0.050545110306041     0.479257617888989
1 37
     0.007453210832102     0.006110440605693     0.002998206596137
     0.019230535267764    -0.076949122709512    -0.003492354556488
    -0.002060931796137    -0.001938135494918    -0.039833314510313
1 38
     0.003154296169977    -0.016250543509949     0.000365563649570
    -0.020344754354773    -0.069968341523690    -0.002867276355362
    -0.003048499736306    -0.001879972218024    -0.038570121030726
1 39
     0.006858122680163    -0.013355223204702     0.001869028004203
    -0.091836612536706     0.082004877935558     0.002657389520354
    -0.000196577871487     0.015273963723780    -0.204756813183214
1 40
    -0.034309970607222     0.014393048910051     0.027667321672450
     0.066063797488835     0.073951896184259    -0.033620153419636
    -0.036886606597076     0.016390626546811    -0.194140142387066
1 41
    -0.578845283180258     0.957201597528011    -0.069241519377341
     0.901517490477769     0.056187793291825    -0.096723787947447
     0.058189308327095    -0.022423574098951     0.683386684343780
1 42
    -0.434671378832582    -0.497552992668437    -0.033717223503154
    -0.580074350549362     0.089236338342215    -0.174426070265363
     0.196507142327605     0.050545110306041     0.479257617888989
1 43
     0.005404888808751    -0.093009783921469     0.009663129576265
    -0.023994169004694    -0.175651894596750     0.013148396082121
     0.008132401528875     0.009306678058750     0.033250909798674
1 44
    -0.002980373553487     0.093747664089042    -0.014297927998611
     0.021727365303220    -0.154244750428843     0.010382473779407
    -0.002916685823089    -0.024792809433208     0.037192823226416
1 45
     0.006858122680163     0.013355223204702     0.001869028004203
     0.091836612536706     0.082004877935558    -0.002657389520354
    -0.000196577871487    -0.015273963723780    -0.204756813183215
1 46
    -0.034309970607222    -0.014393048910051     0.027667321672450
    -0.066063797488835     0.073951896184259     0.033620153419636
    -0.036886606597076    -0.016390626546811    -0.194140142387066
1 47
     0.007453210832102    -0.006110440605693     0.002998206596137
    -0.019230535267764    -0.076949122709512     0.003492354556488
    -0.002060931796137     0.001938135494918    -0.039833314510313
1 48
     0.003154296169977     0.016250543509949     0.000365563649570
     0.020344754354773    -0.069968341523690     0.002867276355362
    -0.003048499736306     0.001879972218024    -0.038570121030726
1 49
     0.027232026721439    -0.018637641818838     0.003584314503954
    -0.005319822634411    -0.172214477570603     0.036828449307131
    -0.000297568537255     0.097767957234267    -0.015748342156271
1 50
    -0.034765696550182     0.004412016620595    -0.004611841925633
     0.005376836738818    -0.069195517862401     0.021082782736868
     0.001739043293475     0.009427517972562     0.003524788703312
1 51
     0.691925115992876     0.099342507308240     0.216564012788958
     0.049493518283124    -0.040850095438562    -0.759478571297840
     0.088973221273763    -0.658178460686151    -0.501644775856791
1 52
    -0.192893332384214    -0.002308541787169    -0.032536909937690
     0.009227802804657     0.055109364370669    -0.096038631711340
     0.016235659466411    -0.024823838887801    -0.023104387030414
1 53
     0.036683879737865     0.017005136655735    -0.000785750991308
    -0.006452727818342    -0.159482662603694    -0.011319639243754
    -0.007504782408018    -0.092501246742009     0.012058978576912
1 54
    -0.040494412569610     0.004690883166438    -0.003320199187340
     0.006005362777642    -0.073005411896324    -0.017623426925163
     0.003139003186684    -0.007902355808056     0.007091468112930
1 55
     0.406053049303209     0.140077708199560     0.077329641196698
     0.162560818536690     0.244212835909625     0.613619334015101
    -0.055033062836477     0.796718750630388    -0.501759399588572
1 56
    -0.196342490707804    -0.005172020714013    -0.002163772647996
    -0.020265465786218     0.084631338933099     0.069867495687663
     0.014062007718433     0.011550439150585     0.003582662264967
1 57
     0.691925115992876    -0.099342507308240     0.216564012788958
    -0.049493518283124    -0.040850095438562     0.759478571297840
     0.088973221273763     0.658178460686151    -0.501644775856791
1 58
    -0.192893332384214     0.002308541787169    -0.032536909937690
    -0.009227802804657     0.055109364370669     0.096038631711340
     0.016235659466411     0.024823838887801    -0.023104387030414
1 59
     0.027232026721439     0.018637641818838     0.003584314503954
     0.005319822634411    -0.172214477570603    -0.036828449307131
    -0.000297568537255    -0.097767957234267    -0.015748342156271
1 60
    -0.034765696550182    -0.004412016620595    -0.004611841925633
    -0.005376836738818    -0.069195517862401    -0.021082782736868
     0.001739043293475    -0.009427517972562     0.003524788703312
1 61
     0.406053049303209    -0.140077708199560     0.077329641196698
    -0.162560818536690     0.244212835909625    -0.613619334015101
    -0.055033062836477    -0.796718750630388    -0.501759399588572
1 62
    -0.196342490707804     0.005172020714013    -0.002163772647996
     0.020265465786218     0.084631338933099    -0.069867495687663
     0.014062007718433    -0.011550439150585     0.003582662264967
1 63
     0.036683879737865    -0.017005136655735    -0.000785750991308
     0.006452727818342    -0.159482662603694     0.011319639243754
    -0.007504782408018     0.092501246742009     0.012058978576912
1 64
    -0.040494412569610    -0.004690883166438    -0.003320199187340
    -0.006005362777642    -0.073005411896324     0.017623426925163
     0.003139003186684     0.007902355808056     0.007091468112930
1 65
     0.010228419627703    -0.006815961793355     0.004251395886021
    -0.011379948486531     0.028056203243616    -0.006154463091418
     0.004596437081678    -0.007353378134924     0.012731016613696
1 66
    -0.009523893496101     0.002040535376585     0.001002628449212
     0.016822600804194     0.031188473735129    -0.016712899035074
    -0.022468854619144    -0.011292894911096     0.028576015183414
1 67
     0.021518754637006     0.003672791425398     0.008395627230155
     0.013613866704121    -0.024552365910120     0.010954124062466
     0.000123335907566     0.003619640745577     0.036005289875481
1 68
    -0.006078733586432    -0.012005306514068    -0.065029513249419
    -0.080580602139626    -0.014884450050099     0.124711779692074
    -0.119945642647938     0.054100722356269     0.147326758400999
1 69
     0.026299318705056    -0.015177544939661    -0.019552051154118
    -0.022705655363258     0.035892485834796     0.014787065888838
    -0.002134359438922     0.002150890463202    -0.014126868162096
1 70
    -0.025664872929867     0.012789523847534     0.019142178758857
     0.007292149878785     0.043660358540499     0.006998843888702
     0.023159139606009     0.010527068711021    -0.029129197744615
1 71
     0.154184303712287     0.076664473040707    -0.126826780624512
     0.110645016233911    -0.040801838115346    -0.071598151518842
    -0.029393045333077     0.000132216284831    -0.027186647151702
1 72
    -0.054600013784392    -0.136310265020690     0.174527670717740
    -0.137494194099398     0.062742164124513    -0.138792207987858
     0.221676121334351    -0.133796450068057    -0.146780184889088
1 73
     0.021518754637006    -0.003672791425398     0.008395627230155
    -0.013613866704121    -0.024552365910120    -0.010954124062466
     0.000123335907566    -0.003619640745577     0.036005289875481
1 74
    -0.006078733586432     0.012005306514068    -0.065029513249419
     0.080580602139626    -0.014884450050099    -0.124711779692074
    -0.119945642647938    -0.054100722356269     0.147326758400999
1 75
     0.010228419627703     0.006815961793355     0.004251395886021
     0.011379948486531     0.028056203243616     0.006154463091418
     0.004596437081678     0.007353378134924     0.012731016613696
1 76
    -0.009523893496101    -0.002040535376585     0.001002628449212
    -0.016822600804194     0.031188473735129     0.016712899035074
    -0.022468854619144     0.011292894911096     0.028576015183414
1 77
     0.154184303712287    -0.076664473040707    -0.126826780624512
    -0.110645016233911    -0.040801838115346     0.071598151518842
    -0.029393045333077    -0.000132216284831    -0.027186647151702
1 78
    -0.054600013784392     0.136310265020690     0.174527670717740
     0.137494194099398     0.062742164124513     0.138792207987858
     0.221676121334351     0.133796450068057    -0.146780184889088
1 79
     0.026299318705056     0.015177544939661    -0.019552051154118
     0.022705655363258     0.035892485834796    -0.014787065888838
    -0.002134359438922    -0.002150890463202    -0.014126868162096
1 80
    -0.025664872929867    -0.012789523847534     0.019142178758856
    -0.007292149878785     0.043660358540499    -0.006998843888702
     0.023159139606009    -0.010527068711021    -0.029129197744615
1 81
    -0.426522142277410    -0.001313991247259     0.145963491553086
     0.013926290369531    -0.152516170118973    -0.026420067331366
     0.107988659512864     0.022667606736706    -0.362025689954187
1 82
     0.160115848995262    -0.033751870984347    -0.113373309907178
    -0.113492369909657    -0.041618461156166     0.067683502874655
    -0.050518737294760     0.004623821365755    -0.016848693236166
1 83
    -0.026235584266156    -0.010739775454530     0.020420480050969
    -0.002839353562174     0.042005992937075    -0.002032850740005
     0.019688484897517    -0.015560724574634    -0.023941440581834
1 84
     0.023597893596762     0.010137385653389    -0.018191689695106
     0.010709097168805     0.030119210871440    -0.011461436378992
    -0.001384370964447    -0.002227045526088    -0.004096314193746
1 85
    -0.049114081105001    -0.007881215739173    -0.009831246123469
     0.050081036192563    -0.056091644795576    -0.088554157664885
    -0.141174877256181    -0.048097962247844     0.184237099619885
1 86
     0.039324236010627    -0.007694096666800    -0.005278873641338
    -0.002319793421872    -0.029219043605289    -0.005542752137594
     0.012245028249200    -0.013683732287329     0.028472634171029
1 87
    -0.006832283626133    -0.001287265956429    -0.002218760986755
    -0.010645403325187     0.032697975474628     0.013163643799232
    -0.018955914712009     0.013135553118826     0.023603702428279
1 88
     0.009694248375962     0.003149435136160     0.000386577613399
     0.002214658959429     0.026001931859472     0.004313220967367
     0.001185558982159     0.002751400775001     0.006083932290457
1 89
    -0.426522142277410     0.001313991247259     0.145963491553086
    -0.013926290369531    -0.152516170118973     0.026420067331366
     0.107988659512864    -0.022667606736706    -0.362025689954187
1 90
     0.160115848995262     0.033751870984347    -0.113373309907178
     0.113492369909657    -0.041618461156166    -0.067683502874655
    -0.050518737294760    -0.004623821365755    -0.016848693236166
1 91
    -0.026235584266156     0.010739775454530     0.020420480050969
     0.002839353562174     0.042005992937075     0.002032850740005
     0.019688484897517     0.015560724574634    -0.023941440581834
1 92
     0.023597893596762    -0.010137385653389    -0.018191689695106
    -0.010709097168805     0.030119210871440     0.011461436378992
    -0.001384370964447     0.002227045526088    -0.004096314193746
1 93
    -0.049114081105001     0.007881215739173    -0.009831246123469
    -0.050081036192563    -0.056091644795576     0.088554157664885
    -0.141174877256181     0.048097962247844     0.184237099619885
1 94
     0.039324236010627     0.007694096666800    -0.005278873641338
     0.002319793421872    -0.029219043605289     0.005542752137594
     0.012245028249200     0.013683732287329     0.028472634171029
1 95
    -0.006832283626133     0.001287265956429    -0.002218760986755
     0.010645403325187     0.032697975474628    -0.013163643799232
    -0.018955914712009    -0.013135553118826     0.023603702428279
1 96
     0.009694248375962    -0.003149435136160     0.000386577613399
    -0.002214658959429     0.026001931859472    -0.004313220967367
     0.001185558982159    -0.002751400775001     0.006083932290457
1 97
     0.191919856815806     0.047207782242703     0.133606033649894
     0.099980702078464    -0.051538103752098     0.036215426561692
    -0.002234086710983    -0.013322740826190    -0.066796763354367
1 98
    -0.602535429918998     0.444437662308960     0.188134222484731
     0.359184434644867    -0.679056182569795    -0.404599868004775
     0.129796928386605    -0.336383723134460    -0.464514092616907
1 99
     0.024404937787973    -0.011407527260662     0.017067682993389
    -0.019162845628053     0.034746638730254    -0.014398217858137
    -0.009037967118552     0.005117703203635    -0.009673615473218
1 100
    -0.020279419570496     0.013930811400718    -0.012033625387685
     0.005547945563172     0.049715943548208    -0.005407538028286
    -0.010269413805664    -0.012620672948180    -0.020888652471156
1 101
     0.024536589533205     0.007865509048089    -0.006025659263122
     0.013703329310528    -0.027657293432778    -0.007568517383468
    -0.003593418711513    -0.004028769117291     0.024077051850790
1 102
    -0.038353092506978    -0.001930097928374    -0.013221467662059
    -0.027313614792631    -0.059303980984061    -0.049753447683246
     0.133437985316072    -0.055230941175375     0.199585502789839
1 103
     0.005325666349656     0.001242910898482     0.001280137560508
    -0.004156459971136     0.022107888773470     0.001831154219986
     0.000768807974063    -0.000691179364536     0.003843737335107
1 104
    -0.011972180431885    -0.004512587670329    -0.007525823225165
     0.014423300971930     0.033849060318266     0.015247541972320
     0.020166086758236     0.011343595484441     0.024325761997866
1 105
     0.191919856815806    -0.047207782242703     0.133606033649894
    -0.099980702078464    -0.051538103752098    -0.036215426561692
    -0.002234086710983     0.013322740826190    -0.066796763354367
1 106
    -0.602535429918999    -0.444437662308960     0.188134222484731
    -0.359184434644867    -0.679056182569795     0.404599868004775
     0.129796928386605     0.336383723134460    -0.464514092616907
1 107
     0.024404937787973     0.011407527260662     0.017067682993389
     0.019162845628053     0.034746638730254     0.014398217858137
    -0.009037967118552    -0.005117703203635    -0.009673615473218
1 108
    -0.020279419570496    -0.013930811400719    -0.012033625387685
    -0.005547945563172     0.049715943548208     0.005407538028286
    -0.010269413805664     0.012620672948180    -0.020888652471156
1 109
     0.024536589533205    -0.007865509048089    -0.006025659263122
    -0.013703329310528    -0.027657293432778     0.007568517383468
    -0.003593418711513     0.004028769117291     0.024077051850790
1 110
    -0.038353092506978     0.001930097928374    -0.013221467662059
     0.027313614792631    -0.059303980984061     0.049753447683246
     0.133437985316071     0.055230941175375     0.199585502789839
1 111
     0.005325666349656    -0.001242910898482     0.001280137560508
     0.004156459971136     0.022107888773470    -0.001831154219986
     0.000768807974063     0.000691179364536     0.003843737335107
1 112
    -0.011972180431885     0.004512587670329    -0.007525823225165
    -0.014423300971930     0.033849060318266    -0.015247541972320
     0.020166086758236    -0.011343595484441     0.024325761997866
1 113
    -0.015262086421267     0.003772026157236    -0.009799597774617
    -0.013795086355949     0.035001304259087    -0.019712356226325
     0.017403679155974    -0.011274790094094     0.029932336031055
1 114
     0.010162795081405     0.001797053198429     0.003560876919884
     0.001947600545319     0.019760930059271    -0.003819999610814
     0.003190150156318    -0.000862928101524     0.008108846926890
1 115
    -0.066751974766033    -0.012628823501380    -0.003080730901535
     0.047357477867246    -0.018650329885676     0.119234898801216
     0.104381232915460     0.040307000683185     0.150622704777455
1 116
     0.035373810840321     0.000050233755458     0.007134903972686
    -0.008433552915171    -0.015790537621462     0.018132564911137
     0.007570391591418    -0.001130340144284     0.029049946836033
1 117
    -0.029713493812415    -0.007889022058828    -0.010552840969836
    -0.009614873629598     0.055830786471837     0.009929828616495
    -0.012445614041895     0.014142524303374    -0.025333772155860
1 118
     0.032989417719309     0.011047505579969     0.020146983926814
     0.015398562080069     0.032201716850964     0.014059424944873
    -0.009440975867302    -0.002954403993596    -0.015553686213287
1 119
    -0.269827127649645     0.088281968204670    -0.216333873805026
     0.016300048127504    -0.190054464168365    -0.105419824550380
    -0.204290376008737    -0.087840835833290    -0.228870278148413
1 120
     0.154155362503865    -0.048784536508460     0.106311634407919
    -0.071783271525366    -0.030334135134517    -0.047703381204212
    -0.031723684855773     0.012222981272752    -0.053396147190613
1 121
    -0.066751974766033     0.012628823501380    -0.003080730901535
    -0.047357477867246    -0.018650329885676    -0.119234898801216
     0.104381232915459    -0.040307000683185     0.150622704777456
1 122
     0.035373810840321    -0.000050233755458     0.007134903972686
     0.008433552915171    -0.015790537621462    -0.018132564911137
     0.007570391591418     0.001130340144284     0.029049946836033
1 123
    -0.015262086421267    -0.003772026157236    -0.009799597774617
     0.013795086355949     0.035001304259087     0.019712356226325
     0.017403679155974     0.011274790094094     0.029932336031055
1 124
     0.010162795081405    -0.001797053198429     0.003560876919884
    -0.001947600545319     0.019760930059271     0.003819999610814
     0.003190150156318     0.000862928101524     0.008108846926890
1 125
    -0.269827127649645    -0.088281968204670    -0.216333873805026
    -0.016300048127504    -0.190054464168365     0.105419824550380
    -0.204290376008737     0.087840835833290    -0.228870278148413
1 126
     0.154155362503865     0.048784536508460     0.106311634407919
     0.071783271525366    -0.030334135134517     0.047703381204212
    -0.031723684855773    -0.012222981272752    -0.053396147190613
1 127
    -0.029713493812415     0.007889022058828    -0.010552840969836
     0.009614873629598     0.055830786471837    -0.009929828616495
    -0.012445614041895    -0.014142524303374    -0.025333772155860
1 128
     0.032989417719309    -0.011047505579969     0.020146983926814
    -0.015398562080069     0.032201716850964    -0.014059424944873
    -0.009440975867302     0.002954403993596    -0.015553686213287
1 129
    -0.009766880972877    -0.000000000000000     0.017780501041682
     0.000000000000000    -0.135377852153586    -0.000000000000000
     0.001155006837877     0.000000000000000     0.063762887461623
1 130
     0.006887252759717    -0.000000000000000    -0.025136837749789
    -0.000000000000000    -0.117035490233625    -0.000000000000000
     0.001229447806912     0.000000000000000     0.064994522439565
1 131
    -0.001802048672950    -0.000000000000000     0.000203010224484
     0.000000000000000     0.080365960424154    -0.000000000000000
    -0.000617296904405     0.000000000000000     0.011099356461284
1 132
    -0.001418719943004    -0.000000000000000    -0.001891470089344
     0.000000000000000     0.077505517083775     0.000000000000000
     0.000893380255754    -0.000000000000000     0.011313116581252
1 133
    -0.874987986351694     0.000000000000000     0.183024096596859
     0.000000000000000    -0.634377514447126     0.000000000000000
     0.113521483376603    -0.000000000000000    -0.210973883955970
1 134
     0.387276230498221    -0.000000000000000    -0.024911437986577
     0.000000000000000    -0.399448023280263    -0.000000000000000
     0.011974519688816     0.000000000000000    -0.145076366587793
1 135
    -0.001799554086600    -0.000000000000000    -0.001523366569363
    -0.000000000000000     0.118912074938847     0.000000000000000
    -0.000235529771290    -0.000000000000000    -0.012033911785611
1 136
     0.003734245650341    -0.000000000000000     0.003874994796420
    -0.000000000000000     0.108766085419890     0.000000000000000
    -0.000947149547195    -0.000000000000000    -0.011540357431924
1 137
     0.027589574556887    -0.178922350832991     0.010547615419908
    -0.052207363711432     0.139284170503745    -0.006757375618043
    -0.009898502211666    -0.001069088342340    -0.080363995257680
1 138
     0.026673039251862     0.172837359073614     0.002125197004582
     0.049844009813485     0.121734378854507     0.006875623353204
    -0.013512784011500    -0.059549830883871    -0.056714944534897
1 139
     0.027589574556887     0.178922350832991     0.010547615419908
     0.052207363711432     0.139284170503745     0.006757375618043
    -0.009898502211666     0.001069088342340    -0.080363995257680
1 140
     0.026673039251862    -0.172837359073614     0.002125197004582
    -0.049844009813485     0.121734378854507    -0.006875623353204
    -0.013512784011500     0.059549830883871    -0.056714944534897
1 141
    -0.003682397892465    -0.004075434684090    -0.008339652875192
    -0.009183956023521     0.022893361814819     0.012564063256667
    -0.003043466794595     0.006839447102176     0.037427854682910
1 142
     0.002371652805447     0.018498473159132     0.003132194364478
     0.009072446507032     0.020263061706366     0.003801758760791
     0.004643234910754     0.010351965261403     0.032103450926053
1 143
    -0.003682397892465     0.004075434684090    -0.008339652875192
     0.009183956023521     0.022893361814819    -0.012564063256667
    -0.003043466794595    -0.006839447102176     0.037427854682910
1 144
     0.002371652805447    -0.018498473159132     0.003132194364478
    -0.009072446507032     0.020263061706366    -0.003801758760791
     0.004643234910754    -0.010351965261403     0.032103450926053
1 145
    -0.137851761682909     0.000000000000000    -0.068998599298198
    -0.000000000000000    -0.437948623454005     0.000000000000000
    -0.038122869248215    -0.000000000000000     0.383295863104177
1 146
     0.053586215000582    -0.000000000000000     0.009628753824187